REMARK  Generated by Sigma Hole Receptor Processor
ROOT
ATOM         1 C  REC A   1   -1.266   0.242   0.092 0.00  0.00    -0.0060 C 
ATOM         2 C  REC A   1    0.068   0.155  -0.598 0.00  0.00     0.1263 C 
ATOM         3 O  REC A   1    0.204   0.463  -1.781 0.00  0.00    -0.3003 OA
ATOM         4 C  REC A   1    1.229  -0.326   0.231 0.00  0.00    -0.0060 C 
ATOM         5 H  REC A   1   -2.022   0.601  -0.611 0.00  0.00     0.0310 H 
ATOM         6 H  REC A   1   -1.201   0.941   0.930 0.00  0.00     0.0310 H 
ATOM         7 H  REC A   1   -1.558  -0.749   0.450 0.00  0.00     0.0310 H 
ATOM         8 H  REC A   1    1.026  -1.336   0.593 0.00  0.00     0.0310 H 
ATOM         9 H  REC A   1    2.136  -0.344  -0.380 0.00  0.00     0.0310 H 
ATOM        10 H  REC A   1    1.384   0.353   1.073 0.00  0.00     0.0310 H 
ENDROOT
TORSDOF
0
