REMARK  Lysozyme (1AKI) receptor prepared for sigma-hole docking
REMARK  Atoms: O/N/S/F are sigma-hole acceptors

ROOT
ATOM      1  N LYS A 1      35.365  22.342 -11.980  0.00  0.00 -0.3199 N
ATOM      2  C LYS A 1      35.892  21.073 -11.427  0.00  0.00  0.0841 C
ATOM      3  C LYS A 1      34.741  20.264 -10.844  0.00  0.00  0.2371 C
ATOM      4  O LYS A 1      33.945  20.813 -10.081  0.00  0.00 -0.2733 O
ATOM      5  C LYS A 1      36.872  21.435 -10.306  0.00  0.00 -0.0289 C
ATOM      6  C LYS A 1      37.453  20.248  -9.565  0.00  0.00 -0.0501 C
ATOM      7  C LYS A 1      38.688  20.649  -8.775  0.00  0.00 -0.0408 C
ATOM      8  C LYS A 1      39.057  19.508  -7.837  0.00  0.00 -0.0077 C
ATOM      9  N LYS A 1      40.423  19.771  -7.299  0.00  0.00 -0.3305 N
ATOM     10  N LYS A 1      34.739  18.961 -11.042  0.00  0.00 -0.3427 N
ATOM     11  C LYS A 1      33.903  17.998 -10.333  0.00  0.00  0.1100 C
ATOM     12  C LYS A 1      34.800  17.312  -9.294  0.00  0.00  0.2430 C
ATOM     13  O LYS A 1      35.759  16.605  -9.665  0.00  0.00 -0.2727 O
ATOM     14  C LYS A 1      33.140  17.034 -11.232  0.00  0.00 -0.0176 C
ATOM     15  C LYS A 1      32.251  16.084 -10.434  0.00  0.00 -0.0603 C
ATOM     16  C LYS A 1      32.294  17.714 -12.290  0.00  0.00 -0.0603 C
ATOM     17  N LYS A 1      34.491  17.546  -8.038  0.00  0.00 -0.3422 N
ATOM     18  C LYS A 1      35.185  16.903  -6.918  0.00  0.00  0.1117 C
ATOM     19  C LYS A 1      34.742  15.441  -6.771  0.00  0.00  0.2429 C
ATOM     20  O LYS A 1      33.525  15.162  -6.862  0.00  0.00 -0.2727 O
ATOM     21  C LYS A 1      34.967  17.632  -5.594  0.00  0.00  0.0017 C
ATOM     22  C LYS A 1      35.944  18.737  -5.375  0.00  0.00 -0.0454 C
ATOM     23  C LYS A 1      35.666  20.050  -5.798  0.00  0.00 -0.0590 C
ATOM     24  C LYS A 1      37.000  18.557  -4.473  0.00  0.00 -0.0590 C
ATOM     25  C LYS A 1      36.577  21.076  -5.568  0.00  0.00 -0.0620 C
ATOM     26  C LYS A 1      37.869  19.589  -4.157  0.00  0.00 -0.0620 C
ATOM     27  C LYS A 1      37.636  20.873  -4.666  0.00  0.00 -0.0622 C
ATOM     28  N LYS A 1      35.724  14.639  -6.331  0.00  0.00 -0.3452 N
ATOM     29  C LYS A 1      35.366  13.280  -5.870  0.00  0.00  0.0967 C
ATOM     30  C LYS A 1      34.924  13.420  -4.415  0.00  0.00  0.2395 C
ATOM     31  O LYS A 1      35.303  14.403  -3.781  0.00  0.00 -0.2730 O
ATOM     32  N LYS A 1      34.053  12.538  -3.973  0.00  0.00 -0.3428 N
ATOM     33  C LYS A 1      33.565  12.538  -2.588  0.00  0.00  0.1078 C
ATOM     34  C LYS A 1      34.665  12.734  -1.556  0.00  0.00  0.2428 C
ATOM     35  O LYS A 1      34.669  13.651  -0.704  0.00  0.00 -0.2727 O
ATOM     36  C LYS A 1      32.765  11.262  -2.331  0.00  0.00 -0.0220 C
ATOM     37  C LYS A 1      32.213  11.203  -0.920  0.00  0.00 -0.0332 C
ATOM     38  C LYS A 1      31.375  10.001  -0.722  0.00  0.00  0.0175 C
ATOM     39  N LYS A 1      32.059   8.749  -0.958  0.00  0.00 -0.3568 N
ATOM     40  C LYS A 1      32.733   8.011  -0.097  0.00  0.00  0.1852 C
ATOM     41  N LYS A 1      32.836   8.332   1.187  0.00  0.00 -0.3702 N
ATOM     42  N LYS A 1      33.245   6.836  -0.526  0.00  0.00 -0.2696 N
ATOM     43  N LYS A 1      35.674  11.853  -1.612  0.00  0.00 -0.3417 N
ATOM     44  C LYS A 1      36.781  11.870  -0.654  0.00  0.00  0.1176 C
ATOM     45  C LYS A 1      37.747  13.050  -0.777  0.00  0.00  0.2436 C
ATOM     46  O LYS A 1      38.148  13.609   0.264  0.00  0.00 -0.2727 O
ATOM     47  C LYS A 1      37.491  10.532  -0.621  0.00  0.00  0.0332 C
ATOM     48  S LYS A 1      36.540   9.205   0.140  0.00  0.00 -0.0914 S
ATOM     49  N LYS A 1      37.861  13.481  -2.019  0.00  0.00 -0.3425 N
ATOM     50  C LYS A 1      38.685  14.686  -2.311  0.00  0.00  0.1083 C
ATOM     51  C LYS A 1      38.049  15.926  -1.658  0.00  0.00  0.2427 C
ATOM     52  O LYS A 1      38.744  16.729  -1.011  0.00  0.00 -0.2727 O
ATOM     53  C LYS A 1      38.784  14.846  -3.818  0.00  0.00 -0.0132 C
ATOM     54  C LYS A 1      39.540  16.051  -4.379  0.00  0.00  0.0478 C
ATOM     55  C LYS A 1      39.576  16.242  -5.870  0.00  0.00  0.3029 C
ATOM     56  O LYS A 1      38.672  15.644  -6.491  0.00  0.00 -0.2525 O
ATOM     57  O LYS A 1      40.415  16.953  -6.381  0.00  0.00 -0.4812 O
ATOM     58  N LYS A 1      36.743  16.049  -1.819  0.00  0.00 -0.3425 N
ATOM     59  C LYS A 1      35.964  17.158  -1.255  0.00  0.00  0.1080 C
ATOM     60  C LYS A 1      36.051  17.132   0.266  0.00  0.00  0.2427 C
ATOM     61  O LYS A 1      36.159  18.166   0.920  0.00  0.00 -0.2727 O
ATOM     62  C LYS A 1      34.528  17.172  -1.811  0.00  0.00 -0.0214 C
ATOM     63  C LYS A 1      33.718  18.354  -1.305  0.00  0.00 -0.0447 C
ATOM     64  C LYS A 1      34.297  19.656  -1.841  0.00  0.00 -0.0627 C
ATOM     65  C LYS A 1      32.246  18.143  -1.596  0.00  0.00 -0.0627 C
ATOM     66  N LYS A 1      35.754  15.980   0.828  0.00  0.00 -0.3428 N
ATOM     67  C LYS A 1      35.838  15.757   2.284  0.00  0.00  0.1049 C
ATOM     68  C LYS A 1      37.144  16.314   2.840  0.00  0.00  0.2424 C
ATOM     69  O LYS A 1      37.151  16.978   3.897  0.00  0.00 -0.2727 O
ATOM     70  C LYS A 1      35.656  14.287   2.623  0.00  0.00 -0.0356 C
ATOM     71  N LYS A 1      38.272  15.983   2.204  0.00  0.00 -0.3428 N
ATOM     72  C LYS A 1      39.610  16.431   2.616  0.00  0.00  0.1049 C
ATOM     73  C LYS A 1      39.736  17.944   2.459  0.00  0.00  0.2424 C
ATOM     74  O LYS A 1      40.193  18.499   3.469  0.00  0.00 -0.2727 O
ATOM     75  C LYS A 1      40.708  15.706   1.842  0.00  0.00 -0.0356 C
ATOM     76  N LYS A 1      39.227  18.519   1.385  0.00  0.00 -0.3428 N
ATOM     77  C LYS A 1      39.264  19.982   1.223  0.00  0.00  0.1049 C
ATOM     78  C LYS A 1      38.491  20.702   2.321  0.00  0.00  0.2424 C
ATOM     79  O LYS A 1      38.946  21.658   2.953  0.00  0.00 -0.2727 O
ATOM     80  C LYS A 1      38.869  20.421  -0.175  0.00  0.00 -0.0356 C
ATOM     81  N LYS A 1      37.288  20.214   2.590  0.00  0.00 -0.3425 N
ATOM     82  C LYS A 1      36.398  20.781   3.612  0.00  0.00  0.1085 C
ATOM     83  C LYS A 1      36.990  20.715   5.007  0.00  0.00  0.2428 C
ATOM     84  O LYS A 1      36.906  21.637   5.840  0.00  0.00 -0.2727 O
ATOM     85  C LYS A 1      34.993  20.213   3.515  0.00  0.00 -0.0146 C
ATOM     86  C LYS A 1      34.320  20.724   2.265  0.00  0.00 -0.0046 C
ATOM     87  S LYS A 1      32.634  19.986   2.235  0.00  0.00 -0.1653 S
ATOM     88  C LYS A 1      31.788  21.135   1.138  0.00  0.00 -0.0184 C
ATOM     89  N LYS A 1      37.688  19.628   5.314  0.00  0.00 -0.3425 N
ATOM     90  C LYS A 1      38.387  19.385   6.579  0.00  0.00  0.1077 C
ATOM     91  C LYS A 1      39.460  20.467   6.731  0.00  0.00  0.2427 C
ATOM     92  O LYS A 1      39.507  21.137   7.776  0.00  0.00 -0.2727 O
ATOM     93  C LYS A 1      38.934  17.952   6.572  0.00  0.00 -0.0236 C
ATOM     94  C LYS A 1      39.742  17.555   7.798  0.00  0.00 -0.0496 C
ATOM     95  C LYS A 1      38.973  16.777   8.834  0.00  0.00 -0.0408 C
ATOM     96  C LYS A 1      39.293  15.305   8.751  0.00  0.00 -0.0077 C
ATOM     97  N LYS A 1      38.077  14.461   8.946  0.00  0.00 -0.3305 N
ATOM     98  N LYS A 1      40.267  20.629   5.688  0.00  0.00 -0.3425 N
ATOM     99  C LYS A 1      41.387  21.577   5.713  0.00  0.00  0.1078 C
ATOM    100  C LYS A 1      40.927  23.017   5.881  0.00  0.00  0.2427 C
ATOM    101  O LYS A 1      41.557  23.834   6.584  0.00  0.00 -0.2727 O
ATOM    102  C LYS A 1      42.388  21.351   4.601  0.00  0.00 -0.0220 C
ATOM    103  C LYS A 1      42.173  22.079   3.289  0.00  0.00 -0.0332 C
ATOM    104  C LYS A 1      43.444  22.075   2.490  0.00  0.00  0.0175 C
ATOM    105  N LYS A 1      43.687  20.710   2.012  0.00  0.00 -0.3568 N
ATOM    106  C LYS A 1      43.098  20.255   0.892  0.00  0.00  0.1852 C
ATOM    107  N LYS A 1      42.695  21.186   0.018  0.00  0.00 -0.3702 N
ATOM    108  N LYS A 1      42.949  18.957   0.689  0.00  0.00 -0.2696 N
ATOM    109  N LYS A 1      39.681  23.247   5.463  0.00  0.00 -0.3421 N
ATOM    110  C LYS A 1      39.075  24.591   5.526  0.00  0.00  0.1133 C
ATOM    111  C LYS A 1      38.310  24.861   6.814  0.00  0.00  0.2429 C
ATOM    112  O LYS A 1      37.608  25.875   6.952  0.00  0.00 -0.2727 O
ATOM    113  C LYS A 1      38.223  24.918   4.285  0.00  0.00  0.0206 C
ATOM    114  C LYS A 1      39.085  25.388   3.171  0.00  0.00  0.0607 C
ATOM    115  N LYS A 1      39.457  24.635   2.091  0.00  0.00 -0.2419 N
ATOM    116  C LYS A 1      39.739  26.570   2.993  0.00  0.00  0.0236 C
ATOM    117  C LYS A 1      40.211  25.312   1.258  0.00  0.00  0.0923 C
ATOM    118  N LYS A 1      40.524  26.419   1.889  0.00  0.00 -0.3509 N
ATOM    119  N LYS A 1      38.296  23.927   7.720  0.00  0.00 -0.3452 N
ATOM    120  C LYS A 1      37.765  24.025   9.072  0.00  0.00  0.0967 C
ATOM    121  C LYS A 1      36.264  23.799   9.210  0.00  0.00  0.2395 C
ATOM    122  O LYS A 1      35.646  24.400  10.127  0.00  0.00 -0.2730 O
ATOM    123  N LYS A 1      35.665  23.073   8.274  0.00  0.00 -0.3428 N
ATOM    124  C LYS A 1      34.238  22.795   8.298  0.00  0.00  0.1080 C
ATOM    125  C LYS A 1      33.845  21.682   9.266  0.00  0.00  0.2428 C
ATOM    126  O LYS A 1      32.643  21.594   9.552  0.00  0.00 -0.2727 O
ATOM    127  C LYS A 1      33.648  22.647   6.901  0.00  0.00 -0.0214 C
ATOM    128  C LYS A 1      33.451  23.889   6.060  0.00  0.00 -0.0447 C
ATOM    129  C LYS A 1      32.933  23.420   4.705  0.00  0.00 -0.0627 C
ATOM    130  C LYS A 1      32.556  24.946   6.679  0.00  0.00 -0.0627 C
ATOM    131  N LYS A 1      34.785  20.814   9.605  0.00  0.00 -0.3419 N
ATOM    132  C LYS A 1      34.492  19.722  10.526  0.00  0.00  0.1182 C
ATOM    133  C LYS A 1      34.015  20.222  11.901  0.00  0.00  0.2433 C
ATOM    134  O LYS A 1      34.826  20.778  12.658  0.00  0.00 -0.2727 O
ATOM    135  C LYS A 1      35.557  18.633  10.598  0.00  0.00  0.0747 C
ATOM    136  C LYS A 1      35.017  17.408  11.311  0.00  0.00  0.3055 C
ATOM    137  O LYS A 1      33.805  17.154  11.455  0.00  0.00 -0.2524 O
ATOM    138  O LYS A 1      35.925  16.603  11.662  0.00  0.00 -0.4812 O
ATOM    139  N LYS A 1      32.746  19.990  12.205  0.00  0.00 -0.3420 N
ATOM    140  C LYS A 1      32.123  20.431  13.448  0.00  0.00  0.1165 C
ATOM    141  C LYS A 1      31.854  21.941  13.497  0.00  0.00  0.2433 C
ATOM    142  O LYS A 1      31.426  22.398  14.573  0.00  0.00 -0.2727 O
ATOM    143  C LYS A 1      32.767  20.004  14.770  0.00  0.00  0.0556 C
ATOM    144  C LYS A 1      32.162  20.512  16.064  0.00  0.00  0.2195 C
ATOM    145  O LYS A 1      30.967  20.273  16.355  0.00  0.00 -0.2753 O
ATOM    146  N LYS A 1      32.847  21.361  16.852  0.00  0.00 -0.3696 N
ATOM    147  N LYS A 1      31.969  22.650  12.406  0.00  0.00 -0.3422 N
ATOM    148  C LYS A 1      31.707  24.099  12.411  0.00  0.00  0.1118 C
ATOM    149  C LYS A 1      30.231  24.343  12.759  0.00  0.00  0.2431 C
ATOM    150  O LYS A 1      29.288  23.874  12.118  0.00  0.00 -0.2727 O
ATOM    151  C LYS A 1      32.070  24.736  11.066  0.00  0.00  0.0017 C
ATOM    152  C LYS A 1      32.061  26.250  11.144  0.00  0.00 -0.0452 C
ATOM    153  C LYS A 1      33.141  26.886  11.760  0.00  0.00 -0.0553 C
ATOM    154  C LYS A 1      30.979  27.004  10.691  0.00  0.00 -0.0553 C
ATOM    155  C LYS A 1      33.206  28.277  11.794  0.00  0.00 -0.0200 C
ATOM    156  C LYS A 1      31.018  28.399  10.779  0.00  0.00 -0.0200 C
ATOM    157  C LYS A 1      32.102  29.017  11.383  0.00  0.00  0.1151 C
ATOM    158  O LYS A 1      32.136  30.371  11.525  0.00  0.00 -0.5080 O
ATOM    159  N LYS A 1      30.088  25.142  13.803  0.00  0.00 -0.3425 N
ATOM    160  C LYS A 1      28.774  25.553  14.319  0.00  0.00  0.1078 C
ATOM    161  C LYS A 1      27.964  24.312  14.623  0.00  0.00  0.2425 C
ATOM    162  O LYS A 1      26.733  24.333  14.606  0.00  0.00 -0.2727 O
ATOM    163  C LYS A 1      28.014  26.565  13.453  0.00  0.00 -0.0220 C
ATOM    164  C LYS A 1      28.507  27.995  13.535  0.00  0.00 -0.0332 C
ATOM    165  C LYS A 1      28.110  28.755  14.765  0.00  0.00  0.0175 C
ATOM    166  N LYS A 1      29.319  29.321  15.324  0.00  0.00 -0.3568 N
ATOM    167  C LYS A 1      30.215  30.234  14.978  0.00  0.00  0.1852 C
ATOM    168  N LYS A 1      31.501  29.856  14.846  0.00  0.00 -0.3702 N
ATOM    169  N LYS A 1      29.938  31.437  14.495  0.00  0.00 -0.2696 N
ATOM    170  N LYS A 1      28.689  23.250  14.998  0.00  0.00 -0.3453 N
ATOM    171  C LYS A 1      28.103  22.021  15.519  0.00  0.00  0.0967 C
ATOM    172  C LYS A 1      27.748  21.018  14.436  0.00  0.00  0.2396 C
ATOM    173  O LYS A 1      27.085  20.022  14.784  0.00  0.00 -0.2730 O
ATOM    174  N LYS A 1      28.209  21.230  13.216  0.00  0.00 -0.3424 N
ATOM    175  C LYS A 1      27.887  20.318  12.111  0.00  0.00  0.1117 C
ATOM    176  C LYS A 1      29.124  19.533  11.628  0.00  0.00  0.2431 C
ATOM    177  O LYS A 1      30.045  20.191  11.139  0.00  0.00 -0.2727 O
ATOM    178  C LYS A 1      27.351  21.107  10.913  0.00  0.00  0.0017 C
ATOM    179  C LYS A 1      26.001  21.745  11.127  0.00  0.00 -0.0452 C
ATOM    180  C LYS A 1      24.846  20.962  11.139  0.00  0.00 -0.0553 C
ATOM    181  C LYS A 1      25.897  23.096  11.458  0.00  0.00 -0.0553 C
ATOM    182  C LYS A 1      23.600  21.518  11.422  0.00  0.00 -0.0200 C
ATOM    183  C LYS A 1      24.647  23.673  11.726  0.00  0.00 -0.0200 C
ATOM    184  C LYS A 1      23.518  22.881  11.701  0.00  0.00  0.1151 C
ATOM    185  O LYS A 1      22.289  23.438  11.912  0.00  0.00 -0.5080 O
ATOM    186  N LYS A 1      29.029  18.223  11.810  0.00  0.00 -0.3405 N
ATOM    187  C LYS A 1      30.143  17.347  11.414  0.00  0.00  0.1310 C
ATOM    188  C LYS A 1      30.359  17.379   9.895  0.00  0.00  0.2451 C
ATOM    189  O LYS A 1      29.442  17.687   9.139  0.00  0.00 -0.2726 O
ATOM    190  C LYS A 1      29.922  15.934  11.907  0.00  0.00  0.0724 C
ATOM    191  O LYS A 1      28.799  15.336  11.308  0.00  0.00 -0.3937 O
ATOM    192  N LYS A 1      31.593  17.028   9.540  0.00  0.00 -0.3424 N
ATOM    193  C LYS A 1      32.035  17.092   8.138  0.00  0.00  0.1080 C
ATOM    194  C LYS A 1      31.030  16.437   7.183  0.00  0.00  0.2425 C
ATOM    195  O LYS A 1      30.874  16.924   6.056  0.00  0.00 -0.2727 O
ATOM    196  C LYS A 1      33.410  16.409   8.084  0.00  0.00 -0.0214 C
ATOM    197  C LYS A 1      34.015  16.477   6.689  0.00  0.00 -0.0447 C
ATOM    198  C LYS A 1      34.174  17.929   6.289  0.00  0.00 -0.0627 C
ATOM    199  C LYS A 1      35.398  15.810   6.752  0.00  0.00 -0.0627 C
ATOM    200  N LYS A 1      30.501  15.280   7.576  0.00  0.00 -0.3453 N
ATOM    201  C LYS A 1      29.539  14.561   6.756  0.00  0.00  0.0967 C
ATOM    202  C LYS A 1      28.338  15.378   6.277  0.00  0.00  0.2396 C
ATOM    203  O LYS A 1      27.886  15.250   5.120  0.00  0.00 -0.2730 O
ATOM    204  N LYS A 1      27.905  16.281   7.161  0.00  0.00 -0.3423 N
ATOM    205  C LYS A 1      26.827  17.227   6.857  0.00  0.00  0.1165 C
ATOM    206  C LYS A 1      27.164  18.015   5.597  0.00  0.00  0.2433 C
ATOM    207  O LYS A 1      26.317  18.208   4.720  0.00  0.00 -0.2727 O
ATOM    208  C LYS A 1      26.484  18.126   8.054  0.00  0.00  0.0556 C
ATOM    209  C LYS A 1      25.681  17.267   9.048  0.00  0.00  0.2195 C
ATOM    210  O LYS A 1      24.511  16.933   8.820  0.00  0.00 -0.2753 O
ATOM    211  N LYS A 1      26.348  17.052  10.169  0.00  0.00 -0.3696 N
ATOM    212  N LYS A 1      28.344  18.591   5.583  0.00  0.00 -0.3422 N
ATOM    213  C LYS A 1      28.831  19.475   4.513  0.00  0.00  0.1118 C
ATOM    214  C LYS A 1      28.940  18.741   3.183  0.00  0.00  0.2431 C
ATOM    215  O LYS A 1      28.742  19.321   2.090  0.00  0.00 -0.2727 O
ATOM    216  C LYS A 1      30.104  20.145   5.023  0.00  0.00  0.0038 C
ATOM    217  C LYS A 1      29.941  20.978   6.251  0.00  0.00 -0.0201 C
ATOM    218  C LYS A 1      30.176  20.624   7.546  0.00  0.00  0.0050 C
ATOM    219  C LYS A 1      29.319  22.284   6.287  0.00  0.00  0.0027 C
ATOM    220  N LYS A 1      29.924  21.690   8.365  0.00  0.00 -0.3609 N
ATOM    221  C LYS A 1      29.337  22.679   7.641  0.00  0.00  0.0456 C
ATOM    222  C LYS A 1      28.894  23.168   5.295  0.00  0.00 -0.0526 C
ATOM    223  C LYS A 1      28.913  23.943   8.038  0.00  0.00 -0.0380 C
ATOM    224  C LYS A 1      28.398  24.404   5.682  0.00  0.00 -0.0615 C
ATOM    225  C LYS A 1      28.431  24.766   7.025  0.00  0.00 -0.0602 C
ATOM    226  N LYS A 1      29.572  17.543   3.261  0.00  0.00 -0.3423 N
ATOM    227  C LYS A 1      29.729  16.711   2.047  0.00  0.00  0.1100 C
ATOM    228  C LYS A 1      28.379  16.340   1.429  0.00  0.00  0.2430 C
ATOM    229  O LYS A 1      28.166  16.496   0.228  0.00  0.00 -0.2727 O
ATOM    230  C LYS A 1      30.649  15.492   2.359  0.00  0.00 -0.0176 C
ATOM    231  C LYS A 1      30.782  14.596   1.136  0.00  0.00 -0.0603 C
ATOM    232  C LYS A 1      32.010  16.050   2.772  0.00  0.00 -0.0603 C
ATOM    233  N LYS A 1      27.501  15.906   2.299  0.00  0.00 -0.3417 N
ATOM    234  C LYS A 1      26.115  15.567   1.991  0.00  0.00  0.1176 C
ATOM    235  C LYS A 1      25.388  16.723   1.302  0.00  0.00  0.2436 C
ATOM    236  O LYS A 1      24.894  16.516   0.172  0.00  0.00 -0.2727 O
ATOM    237  C LYS A 1      25.343  15.046   3.172  0.00  0.00  0.0332 C
ATOM    238  S LYS A 1      23.719  14.376   2.695  0.00  0.00 -0.0914 S
ATOM    239  N LYS A 1      25.533  17.913   1.870  0.00  0.00 -0.3428 N
ATOM    240  C LYS A 1      24.949  19.130   1.305  0.00  0.00  0.1049 C
ATOM    241  C LYS A 1      25.487  19.354  -0.115  0.00  0.00  0.2424 C
ATOM    242  O LYS A 1      24.675  19.686  -0.998  0.00  0.00 -0.2727 O
ATOM    243  C LYS A 1      25.167  20.335   2.200  0.00  0.00 -0.0356 C
ATOM    244  N LYS A 1      26.807  19.354  -0.286  0.00  0.00 -0.3428 N
ATOM    245  C LYS A 1      27.461  19.536  -1.579  0.00  0.00  0.1049 C
ATOM    246  C LYS A 1      26.943  18.538  -2.620  0.00  0.00  0.2424 C
ATOM    247  O LYS A 1      26.767  18.857  -3.789  0.00  0.00 -0.2727 O
ATOM    248  C LYS A 1      28.982  19.476  -1.398  0.00  0.00 -0.0356 C
ATOM    249  N LYS A 1      26.731  17.303  -2.193  0.00  0.00 -0.3425 N
ATOM    250  C LYS A 1      26.261  16.216  -3.037  0.00  0.00  0.1077 C
ATOM    251  C LYS A 1      24.903  16.555  -3.658  0.00  0.00  0.2427 C
ATOM    252  O LYS A 1      24.806  16.511  -4.890  0.00  0.00 -0.2727 O
ATOM    253  C LYS A 1      26.221  14.860  -2.351  0.00  0.00 -0.0236 C
ATOM    254  C LYS A 1      25.697  13.696  -3.185  0.00  0.00 -0.0496 C
ATOM    255  C LYS A 1      26.498  13.400  -4.446  0.00  0.00 -0.0408 C
ATOM    256  C LYS A 1      25.686  12.464  -5.331  0.00  0.00 -0.0077 C
ATOM    257  N LYS A 1      26.423  11.979  -6.525  0.00  0.00 -0.3305 N
ATOM    258  N LYS A 1      23.972  16.946  -2.817  0.00  0.00 -0.3422 N
ATOM    259  C LYS A 1      22.569  17.125  -3.247  0.00  0.00  0.1118 C
ATOM    260  C LYS A 1      22.346  18.506  -3.836  0.00  0.00  0.2431 C
ATOM    261  O LYS A 1      21.504  18.692  -4.759  0.00  0.00 -0.2727 O
ATOM    262  C LYS A 1      21.626  16.673  -2.130  0.00  0.00  0.0017 C
ATOM    263  C LYS A 1      21.644  15.172  -1.965  0.00  0.00 -0.0454 C
ATOM    264  C LYS A 1      21.209  14.353  -3.007  0.00  0.00 -0.0590 C
ATOM    265  C LYS A 1      22.272  14.627  -0.851  0.00  0.00 -0.0590 C
ATOM    266  C LYS A 1      21.372  12.961  -2.910  0.00  0.00 -0.0620 C
ATOM    267  C LYS A 1      22.443  13.245  -0.743  0.00  0.00 -0.0620 C
ATOM    268  C LYS A 1      21.923  12.406  -1.737  0.00  0.00 -0.0622 C
ATOM    269  N LYS A 1      23.251  19.415  -3.451  0.00  0.00 -0.3425 N
ATOM    270  C LYS A 1      23.178  20.789  -3.996  0.00  0.00  0.1083 C
ATOM    271  C LYS A 1      23.661  20.944  -5.423  0.00  0.00  0.2428 C
ATOM    272  O LYS A 1      23.014  21.514  -6.310  0.00  0.00 -0.2727 O
ATOM    273  C LYS A 1      23.698  21.892  -3.107  0.00  0.00 -0.0132 C
ATOM    274  C LYS A 1      22.994  22.212  -1.809  0.00  0.00  0.0478 C
ATOM    275  C LYS A 1      21.631  22.846  -1.864  0.00  0.00  0.3029 C
ATOM    276  O LYS A 1      21.408  23.360  -2.981  0.00  0.00 -0.2525 O
ATOM    277  O LYS A 1      20.947  23.032  -0.874  0.00  0.00 -0.4812 O
ATOM    278  N LYS A 1      24.867  20.483  -5.674  0.00  0.00 -0.3405 N
ATOM    279  C LYS A 1      25.626  20.615  -6.903  0.00  0.00  0.1310 C
ATOM    280  C LYS A 1      26.139  19.341  -7.569  0.00  0.00  0.2451 C
ATOM    281  O LYS A 1      26.750  19.464  -8.642  0.00  0.00 -0.2726 O
ATOM    282  C LYS A 1      26.830  21.528  -6.654  0.00  0.00  0.0724 C
ATOM    283  O LYS A 1      27.747  20.951  -5.748  0.00  0.00 -0.3937 O
ATOM    284  N LYS A 1      25.957  18.222  -6.927  0.00  0.00 -0.3419 N
ATOM    285  C LYS A 1      26.628  16.968  -7.297  0.00  0.00  0.1165 C
ATOM    286  C LYS A 1      28.149  17.091  -7.302  0.00  0.00  0.2433 C
ATOM    287  O LYS A 1      28.813  16.627  -8.254  0.00  0.00 -0.2727 O
ATOM    288  C LYS A 1      26.028  16.490  -8.617  0.00  0.00  0.0556 C
ATOM    289  C LYS A 1      26.156  14.980  -8.782  0.00  0.00  0.2195 C
ATOM    290  O LYS A 1      26.640  14.266  -7.885  0.00  0.00 -0.2753 O
ATOM    291  N LYS A 1      25.867  14.506  -9.990  0.00  0.00 -0.3696 N
ATOM    292  N LYS A 1      28.691  17.882  -6.383  0.00  0.00 -0.3422 N
ATOM    293  C LYS A 1      30.129  18.115  -6.279  0.00  0.00  0.1118 C
ATOM    294  C LYS A 1      30.717  18.903  -7.448  0.00  0.00  0.2431 C
ATOM    295  O LYS A 1      31.923  18.794  -7.702  0.00  0.00 -0.2727 O
ATOM    296  C LYS A 1      30.914  16.823  -6.047  0.00  0.00  0.0017 C
ATOM    297  C LYS A 1      30.487  16.006  -4.863  0.00  0.00 -0.0454 C
ATOM    298  C LYS A 1      30.100  16.572  -3.655  0.00  0.00 -0.0590 C
ATOM    299  C LYS A 1      30.507  14.603  -4.993  0.00  0.00 -0.0590 C
ATOM    300  C LYS A 1      29.766  15.808  -2.558  0.00  0.00 -0.0620 C
ATOM    301  C LYS A 1      30.136  13.814  -3.891  0.00  0.00 -0.0620 C
ATOM    302  C LYS A 1      29.835  14.410  -2.646  0.00  0.00 -0.0622 C
ATOM    303  N LYS A 1      29.936  19.792  -8.033  0.00  0.00 -0.3420 N
ATOM    304  C LYS A 1      30.341  20.573  -9.199  0.00  0.00  0.1165 C
ATOM    305  C LYS A 1      30.543  22.034  -8.823  0.00  0.00  0.2433 C
ATOM    306  O LYS A 1      29.544  22.649  -8.423  0.00  0.00 -0.2727 O
ATOM    307  C LYS A 1      29.406  20.300 -10.366  0.00  0.00  0.0556 C
ATOM    308  C LYS A 1      29.876  20.771 -11.716  0.00  0.00  0.2195 C
ATOM    309  O LYS A 1      30.579  21.750 -11.956  0.00  0.00 -0.2753 O
ATOM    310  N LYS A 1      29.578  19.864 -12.653  0.00  0.00 -0.3696 N
ATOM    311  N LYS A 1      31.766  22.492  -8.928  0.00  0.00 -0.3402 N
ATOM    312  C LYS A 1      32.139  23.869  -8.657  0.00  0.00  0.1336 C
ATOM    313  C LYS A 1      31.504  24.890  -9.589  0.00  0.00  0.2454 C
ATOM    314  O LYS A 1      31.316  26.054  -9.213  0.00  0.00 -0.2726 O
ATOM    315  C LYS A 1      33.684  24.103  -8.422  0.00  0.00  0.0804 C
ATOM    316  O LYS A 1      34.270  24.156  -9.775  0.00  0.00 -0.3907 O
ATOM    317  C LYS A 1      34.414  23.119  -7.491  0.00  0.00 -0.0364 C
ATOM    318  N LYS A 1      31.001  24.430 -10.706  0.00  0.00 -0.3424 N
ATOM    319  C LYS A 1      30.524  25.291 -11.812  0.00  0.00  0.1082 C
ATOM    320  C LYS A 1      28.993  25.381 -11.874  0.00  0.00  0.2427 C
ATOM    321  O LYS A 1      28.504  26.019 -12.837  0.00  0.00 -0.2727 O
ATOM    322  C LYS A 1      31.047  24.817 -13.168  0.00  0.00 -0.0149 C
ATOM    323  C LYS A 1      32.549  25.004 -13.279  0.00  0.00  0.0287 C
ATOM    324  C LYS A 1      32.763  26.236 -14.129  0.00  0.00  0.2170 C
ATOM    325  O LYS A 1      32.356  26.308 -15.291  0.00  0.00 -0.2754 O
ATOM    326  N LYS A 1      33.276  27.231 -13.420  0.00  0.00 -0.3697 N
ATOM    327  N LYS A 1      28.329  24.640 -11.012  0.00  0.00 -0.3428 N
ATOM    328  C LYS A 1      26.859  24.579 -11.061  0.00  0.00  0.1049 C
ATOM    329  C LYS A 1      26.257  25.969 -10.807  0.00  0.00  0.2425 C
ATOM    330  O LYS A 1      26.645  26.686  -9.884  0.00  0.00 -0.2727 O
ATOM    331  C LYS A 1      26.355  23.604  -9.998  0.00  0.00 -0.0356 C
ATOM    332  N LYS A 1      25.276  26.293 -11.643  0.00  0.00 -0.3403 N
ATOM    333  C LYS A 1      24.441  27.490 -11.476  0.00  0.00  0.1336 C
ATOM    334  C LYS A 1      22.976  27.112 -11.714  0.00  0.00  0.2454 C
ATOM    335  O LYS A 1      22.715  26.271 -12.594  0.00  0.00 -0.2726 O
ATOM    336  C LYS A 1      24.814  28.728 -12.375  0.00  0.00  0.0804 C
ATOM    337  O LYS A 1      24.555  28.321 -13.756  0.00  0.00 -0.3907 O
ATOM    338  C LYS A 1      26.247  29.213 -12.184  0.00  0.00 -0.0364 C
ATOM    339  N LYS A 1      22.088  27.742 -10.971  0.00  0.00 -0.3419 N
ATOM    340  C LYS A 1      20.640  27.497 -11.108  0.00  0.00  0.1165 C
ATOM    341  C LYS A 1      19.903  28.842 -10.963  0.00  0.00  0.2433 C
ATOM    342  O LYS A 1      20.169  29.600 -10.033  0.00  0.00 -0.2727 O
ATOM    343  C LYS A 1      20.155  26.480 -10.080  0.00  0.00  0.0556 C
ATOM    344  C LYS A 1      18.646  26.315 -10.115  0.00  0.00  0.2195 C
ATOM    345  O LYS A 1      18.128  25.720 -11.078  0.00  0.00 -0.2753 O
ATOM    346  N LYS A 1      17.906  26.927  -9.188  0.00  0.00 -0.3696 N
ATOM    347  N LYS A 1      19.058  29.117 -11.924  0.00  0.00 -0.3425 N
ATOM    348  C LYS A 1      18.303  30.363 -12.015  0.00  0.00  0.1078 C
ATOM    349  C LYS A 1      16.955  30.163 -11.326  0.00  0.00  0.2427 C
ATOM    350  O LYS A 1      16.396  29.062 -11.425  0.00  0.00 -0.2727 O
ATOM    351  C LYS A 1      18.143  30.836 -13.462  0.00  0.00 -0.0220 C
ATOM    352  C LYS A 1      17.012  31.859 -13.557  0.00  0.00 -0.0332 C
ATOM    353  C LYS A 1      17.502  33.134 -12.930  0.00  0.00  0.0175 C
ATOM    354  N LYS A 1      18.311  33.758 -13.981  0.00  0.00 -0.3568 N
ATOM    355  C LYS A 1      17.620  34.271 -15.020  0.00  0.00  0.1852 C
ATOM    356  N LYS A 1      16.287  34.331 -15.098  0.00  0.00 -0.3702 N
ATOM    357  N LYS A 1      18.374  34.698 -16.030  0.00  0.00 -0.2696 N
ATOM    358  N LYS A 1      16.553  31.171 -10.554  0.00  0.00 -0.3420 N
ATOM    359  C LYS A 1      15.304  31.071  -9.782  0.00  0.00  0.1165 C
ATOM    360  C LYS A 1      14.261  32.063 -10.313  0.00  0.00  0.2433 C
ATOM    361  O LYS A 1      14.617  33.104 -10.880  0.00  0.00 -0.2727 O
ATOM    362  C LYS A 1      15.576  31.229  -8.295  0.00  0.00  0.0556 C
ATOM    363  C LYS A 1      16.543  30.240  -7.679  0.00  0.00  0.2195 C
ATOM    364  O LYS A 1      17.659  30.661  -7.346  0.00  0.00 -0.2753 O
ATOM    365  N LYS A 1      16.125  28.975  -7.600  0.00  0.00 -0.3696 N
ATOM    366  N LYS A 1      13.027  31.834  -9.887  0.00  0.00 -0.3402 N
ATOM    367  C LYS A 1      11.871  32.654 -10.246  0.00  0.00  0.1336 C
ATOM    368  C LYS A 1      12.001  34.107  -9.810  0.00  0.00  0.2454 C
ATOM    369  O LYS A 1      11.600  34.969 -10.606  0.00  0.00 -0.2726 O
ATOM    370  C LYS A 1      10.499  32.017  -9.789  0.00  0.00  0.0804 C
ATOM    371  O LYS A 1      10.507  32.195  -8.342  0.00  0.00 -0.3907 O
ATOM    372  C LYS A 1      10.331  30.554 -10.188  0.00  0.00 -0.0364 C
ATOM    373  N LYS A 1      12.625  34.377  -8.683  0.00  0.00 -0.3418 N
ATOM    374  C LYS A 1      12.885  35.716  -8.168  0.00  0.00  0.1182 C
ATOM    375  C LYS A 1      14.010  36.505  -8.823  0.00  0.00  0.2431 C
ATOM    376  O LYS A 1      14.246  37.621  -8.309  0.00  0.00 -0.2727 O
ATOM    377  C LYS A 1      13.023  35.735  -6.640  0.00  0.00  0.0747 C
ATOM    378  C LYS A 1      14.367  35.174  -6.168  0.00  0.00  0.3055 C
ATOM    379  O LYS A 1      15.104  34.602  -6.991  0.00  0.00 -0.2524 O
ATOM    380  O LYS A 1      14.750  35.442  -5.013  0.00  0.00 -0.4812 O
ATOM    381  N LYS A 1      14.650  36.018  -9.862  0.00  0.00 -0.3452 N
ATOM    382  C LYS A 1      15.744  36.702 -10.546  0.00  0.00  0.0967 C
ATOM    383  C LYS A 1      17.147  36.315 -10.096  0.00  0.00  0.2396 C
ATOM    384  O LYS A 1      18.168  36.688 -10.694  0.00  0.00 -0.2730 O
ATOM    385  N LYS A 1      17.173  35.661  -8.930  0.00  0.00 -0.3407 N
ATOM    386  C LYS A 1      18.435  35.225  -8.279  0.00  0.00  0.1310 C
ATOM    387  C LYS A 1      18.977  33.963  -8.941  0.00  0.00  0.2452 C
ATOM    388  O LYS A 1      18.273  33.255  -9.697  0.00  0.00 -0.2726 O
ATOM    389  C LYS A 1      18.272  35.089  -6.781  0.00  0.00  0.0724 C
ATOM    390  O LYS A 1      17.530  33.930  -6.463  0.00  0.00 -0.3937 O
ATOM    391  N LYS A 1      20.271  33.766  -8.734  0.00  0.00 -0.3402 N
ATOM    392  C LYS A 1      20.970  32.557  -9.202  0.00  0.00  0.1336 C
ATOM    393  C LYS A 1      21.718  31.969  -8.000  0.00  0.00  0.2454 C
ATOM    394  O LYS A 1      22.160  32.712  -7.119  0.00  0.00 -0.2726 O
ATOM    395  C LYS A 1      21.904  32.908 -10.419  0.00  0.00  0.0804 C
ATOM    396  O LYS A 1      21.099  33.576 -11.407  0.00  0.00 -0.3907 O
ATOM    397  C LYS A 1      22.686  31.699 -10.952  0.00  0.00 -0.0364 C
ATOM    398  N LYS A 1      21.708  30.650  -7.927  0.00  0.00 -0.3418 N
ATOM    399  C LYS A 1      22.528  29.900  -6.959  0.00  0.00  0.1182 C
ATOM    400  C LYS A 1      23.843  29.488  -7.635  0.00  0.00  0.2433 C
ATOM    401  O LYS A 1      23.847  29.066  -8.805  0.00  0.00 -0.2727 O
ATOM    402  C LYS A 1      21.765  28.649  -6.554  0.00  0.00  0.0747 C
ATOM    403  C LYS A 1      20.396  28.991  -6.002  0.00  0.00  0.3055 C
ATOM    404  O LYS A 1      20.220  29.928  -5.237  0.00  0.00 -0.2524 O
ATOM    405  O LYS A 1      19.517  28.144  -6.222  0.00  0.00 -0.4812 O
ATOM    406  N LYS A 1      24.924  29.734  -6.905  0.00  0.00 -0.3422 N
ATOM    407  C LYS A 1      26.278  29.604  -7.450  0.00  0.00  0.1117 C
ATOM    408  C LYS A 1      27.161  28.595  -6.708  0.00  0.00  0.2429 C
ATOM    409  O LYS A 1      27.289  28.606  -5.486  0.00  0.00 -0.2727 O
ATOM    410  C LYS A 1      26.993  30.972  -7.489  0.00  0.00  0.0017 C
ATOM    411  C LYS A 1      26.437  31.959  -8.487  0.00  0.00 -0.0452 C
ATOM    412  C LYS A 1      26.843  32.003  -9.821  0.00  0.00 -0.0553 C
ATOM    413  C LYS A 1      25.510  32.907  -8.050  0.00  0.00 -0.0553 C
ATOM    414  C LYS A 1      26.291  32.922 -10.717  0.00  0.00 -0.0200 C
ATOM    415  C LYS A 1      24.907  33.803  -8.932  0.00  0.00 -0.0200 C
ATOM    416  C LYS A 1      25.357  33.847 -10.252  0.00  0.00  0.1151 C
ATOM    417  O LYS A 1      24.864  34.804 -11.094  0.00  0.00 -0.5080 O
ATOM    418  N LYS A 1      27.751  27.721  -7.493  0.00  0.00 -0.3452 N
ATOM    419  C LYS A 1      28.845  26.832  -7.121  0.00  0.00  0.0967 C
ATOM    420  C LYS A 1      28.499  25.601  -6.290  0.00  0.00  0.2396 C
ATOM    421  O LYS A 1      27.339  25.155  -6.255  0.00  0.00 -0.2730 O
ATOM    422  N LYS A 1      29.560  25.088  -5.684  0.00  0.00 -0.3425 N
ATOM    423  C LYS A 1      29.452  23.795  -4.994  0.00  0.00  0.1103 C
ATOM    424  C LYS A 1      28.424  23.748  -3.872  0.00  0.00  0.2430 C
ATOM    425  O LYS A 1      27.770  22.697  -3.693  0.00  0.00 -0.2727 O
ATOM    426  C LYS A 1      30.891  23.340  -4.563  0.00  0.00 -0.0150 C
ATOM    427  C LYS A 1      30.785  21.812  -4.319  0.00  0.00 -0.0511 C
ATOM    428  C LYS A 1      31.396  24.210  -3.390  0.00  0.00 -0.0600 C
ATOM    429  C LYS A 1      32.101  21.018  -4.339  0.00  0.00 -0.0650 C
ATOM    430  N LYS A 1      28.216  24.881  -3.236  0.00  0.00 -0.3425 N
ATOM    431  C LYS A 1      27.173  24.998  -2.203  0.00  0.00  0.1080 C
ATOM    432  C LYS A 1      25.981  25.838  -2.659  0.00  0.00  0.2427 C
ATOM    433  O LYS A 1      25.161  26.111  -1.774  0.00  0.00 -0.2727 O
ATOM    434  C LYS A 1      27.816  25.424  -0.877  0.00  0.00 -0.0214 C
ATOM    435  C LYS A 1      28.692  24.348  -0.204  0.00  0.00 -0.0447 C
ATOM    436  C LYS A 1      29.331  24.997   1.008  0.00  0.00 -0.0627 C
ATOM    437  C LYS A 1      27.808  23.177   0.192  0.00  0.00 -0.0627 C
ATOM    438  N LYS A 1      25.865  26.104  -3.946  0.00  0.00 -0.3425 N
ATOM    439  C LYS A 1      24.668  26.785  -4.465  0.00  0.00  0.1082 C
ATOM    440  C LYS A 1      24.277  27.940  -3.558  0.00  0.00  0.2428 C
ATOM    441  O LYS A 1      23.116  28.031  -3.094  0.00  0.00 -0.2727 O
ATOM    442  C LYS A 1      23.521  25.765  -4.549  0.00  0.00 -0.0149 C
ATOM    443  C LYS A 1      23.733  24.790  -5.699  0.00  0.00  0.0287 C
ATOM    444  C LYS A 1      23.684  25.440  -7.069  0.00  0.00  0.2170 C
ATOM    445  O LYS A 1      22.574  25.602  -7.591  0.00  0.00 -0.2754 O
ATOM    446  N LYS A 1      24.813  25.805  -7.651  0.00  0.00 -0.3697 N
ATOM    447  N LYS A 1      25.164  28.910  -3.428  0.00  0.00 -0.3423 N
ATOM    448  C LYS A 1      24.930  30.118  -2.649  0.00  0.00  0.1103 C
ATOM    449  C LYS A 1      24.204  31.163  -3.504  0.00  0.00  0.2430 C
ATOM    450  O LYS A 1      24.555  31.405  -4.667  0.00  0.00 -0.2727 O
ATOM    451  C LYS A 1      26.301  30.665  -2.134  0.00  0.00 -0.0150 C
ATOM    452  C LYS A 1      26.751  29.724  -0.985  0.00  0.00 -0.0511 C
ATOM    453  C LYS A 1      26.178  32.135  -1.693  0.00  0.00 -0.0600 C
ATOM    454  C LYS A 1      28.246  29.954  -0.641  0.00  0.00 -0.0650 C
ATOM    455  N LYS A 1      23.145  31.671  -2.905  0.00  0.00 -0.3420 N
ATOM    456  C LYS A 1      22.146  32.510  -3.590  0.00  0.00  0.1165 C
ATOM    457  C LYS A 1      22.550  33.974  -3.730  0.00  0.00  0.2433 C
ATOM    458  O LYS A 1      22.917  34.607  -2.740  0.00  0.00 -0.2727 O
ATOM    459  C LYS A 1      20.805  32.306  -2.884  0.00  0.00  0.0556 C
ATOM    460  C LYS A 1      19.650  32.986  -3.588  0.00  0.00  0.2195 C
ATOM    461  O LYS A 1      19.464  34.171  -3.244  0.00  0.00 -0.2753 O
ATOM    462  N LYS A 1      19.155  32.320  -4.612  0.00  0.00 -0.3696 N
ATOM    463  N LYS A 1      22.268  34.485  -4.941  0.00  0.00 -0.3405 N
ATOM    464  C LYS A 1      22.570  35.910  -5.255  0.00  0.00  0.1310 C
ATOM    465  C LYS A 1      21.687  36.993  -4.642  0.00  0.00  0.2451 C
ATOM    466  O LYS A 1      22.054  38.177  -4.774  0.00  0.00 -0.2726 O
ATOM    467  C LYS A 1      22.643  36.139  -6.750  0.00  0.00  0.0724 C
ATOM    468  O LYS A 1      21.432  36.007  -7.444  0.00  0.00 -0.3937 O
ATOM    469  N LYS A 1      20.526  36.660  -4.138  0.00  0.00 -0.3424 N
ATOM    470  C LYS A 1      19.691  37.653  -3.434  0.00  0.00  0.1078 C
ATOM    471  C LYS A 1      20.277  38.108  -2.106  0.00  0.00  0.2427 C
ATOM    472  O LYS A 1      20.282  39.333  -1.876  0.00  0.00 -0.2727 O
ATOM    473  C LYS A 1      18.267  37.195  -3.250  0.00  0.00 -0.0220 C
ATOM    474  C LYS A 1      17.315  38.350  -2.959  0.00  0.00 -0.0332 C
ATOM    475  C LYS A 1      16.063  37.657  -2.503  0.00  0.00  0.0175 C
ATOM    476  N LYS A 1      15.101  38.653  -2.063  0.00  0.00 -0.3568 N
ATOM    477  C LYS A 1      13.794  38.351  -2.111  0.00  0.00  0.1852 C
ATOM    478  N LYS A 1      13.439  37.257  -2.784  0.00  0.00 -0.3702 N
ATOM    479  N LYS A 1      12.925  39.249  -1.646  0.00  0.00 -0.2696 N
ATOM    480  N LYS A 1      20.773  37.202  -1.273  0.00  0.00 -0.3422 N
ATOM    481  C LYS A 1      21.321  37.563   0.032  0.00  0.00  0.1118 C
ATOM    482  C LYS A 1      22.848  37.643   0.101  0.00  0.00  0.2431 C
ATOM    483  O LYS A 1      23.323  38.396   0.968  0.00  0.00 -0.2727 O
ATOM    484  C LYS A 1      20.833  36.611   1.134  0.00  0.00  0.0038 C
ATOM    485  C LYS A 1      19.360  36.361   1.096  0.00  0.00 -0.0201 C
ATOM    486  C LYS A 1      18.719  35.247   0.643  0.00  0.00  0.0050 C
ATOM    487  C LYS A 1      18.326  37.305   1.427  0.00  0.00  0.0027 C
ATOM    488  N LYS A 1      17.360  35.457   0.609  0.00  0.00 -0.3609 N
ATOM    489  C LYS A 1      17.090  36.696   1.096  0.00  0.00  0.0456 C
ATOM    490  C LYS A 1      18.333  38.584   1.965  0.00  0.00 -0.0526 C
ATOM    491  C LYS A 1      15.875  37.327   1.307  0.00  0.00 -0.0380 C
ATOM    492  C LYS A 1      17.115  39.208   2.186  0.00  0.00 -0.0615 C
ATOM    493  C LYS A 1      15.906  38.611   1.814  0.00  0.00 -0.0602 C
ATOM    494  N LYS A 1      23.537  36.731  -0.584  0.00  0.00 -0.3422 N
ATOM    495  C LYS A 1      24.906  36.398  -0.276  0.00  0.00  0.1118 C
ATOM    496  C LYS A 1      26.089  36.924  -1.052  0.00  0.00  0.2431 C
ATOM    497  O LYS A 1      27.142  37.177  -0.432  0.00  0.00 -0.2727 O
ATOM    498  C LYS A 1      25.068  34.919   0.112  0.00  0.00  0.0038 C
ATOM    499  C LYS A 1      24.036  34.428   1.068  0.00  0.00 -0.0201 C
ATOM    500  C LYS A 1      22.959  33.620   0.777  0.00  0.00  0.0050 C
ATOM    501  C LYS A 1      23.919  34.728   2.450  0.00  0.00  0.0027 C
ATOM    502  N LYS A 1      22.243  33.344   1.899  0.00  0.00 -0.3609 N
ATOM    503  C LYS A 1      22.761  34.067   2.931  0.00  0.00  0.0456 C
ATOM    504  C LYS A 1      24.694  35.480   3.323  0.00  0.00 -0.0526 C
ATOM    505  C LYS A 1      22.393  34.133   4.278  0.00  0.00 -0.0380 C
ATOM    506  C LYS A 1      24.302  35.586   4.648  0.00  0.00 -0.0615 C
ATOM    507  C LYS A 1      23.179  34.910   5.117  0.00  0.00 -0.0602 C
ATOM    508  N LYS A 1      25.962  36.914  -2.353  0.00  0.00 -0.3417 N
ATOM    509  C LYS A 1      26.985  37.433  -3.271  0.00  0.00  0.1176 C
ATOM    510  C LYS A 1      26.324  38.355  -4.286  0.00  0.00  0.2436 C
ATOM    511  O LYS A 1      25.102  38.314  -4.475  0.00  0.00 -0.2727 O
ATOM    512  C LYS A 1      27.638  36.265  -3.988  0.00  0.00  0.0332 C
ATOM    513  S LYS A 1      26.562  35.233  -5.007  0.00  0.00 -0.0914 S
ATOM    514  N LYS A 1      27.157  39.165  -4.908  0.00  0.00 -0.3420 N
ATOM    515  C LYS A 1      26.700  40.134  -5.920  0.00  0.00  0.1165 C
ATOM    516  C LYS A 1      26.985  39.646  -7.342  0.00  0.00  0.2433 C
ATOM    517  O LYS A 1      28.130  39.316  -7.647  0.00  0.00 -0.2727 O
ATOM    518  C LYS A 1      27.381  41.492  -5.712  0.00  0.00  0.0556 C
ATOM    519  C LYS A 1      26.910  42.423  -6.824  0.00  0.00  0.2195 C
ATOM    520  O LYS A 1      25.736  42.559  -7.141  0.00  0.00 -0.2753 O
ATOM    521  N LYS A 1      27.914  42.938  -7.527  0.00  0.00 -0.3696 N
ATOM    522  N LYS A 1      25.920  39.484  -8.116  0.00  0.00 -0.3419 N
ATOM    523  C LYS A 1      26.102  39.180  -9.545  0.00  0.00  0.1182 C
ATOM    524  C LYS A 1      25.664  40.317 -10.460  0.00  0.00  0.2431 C
ATOM    525  O LYS A 1      25.719  40.143 -11.673  0.00  0.00 -0.2727 O
ATOM    526  C LYS A 1      25.462  37.858  -9.894  0.00  0.00  0.0747 C
ATOM    527  C LYS A 1      23.951  37.903  -9.833  0.00  0.00  0.3055 C
ATOM    528  O LYS A 1      23.288  38.898  -9.542  0.00  0.00 -0.2524 O
ATOM    529  O LYS A 1      23.455  36.769 -10.048  0.00  0.00 -0.4812 O
ATOM    530  N LYS A 1      25.234  41.408  -9.860  0.00  0.00 -0.3452 N
ATOM    531  C LYS A 1      24.817  42.607 -10.577  0.00  0.00  0.0967 C
ATOM    532  C LYS A 1      23.544  42.553 -11.401  0.00  0.00  0.2395 C
ATOM    533  O LYS A 1      23.191  43.542 -12.055  0.00  0.00 -0.2730 O
ATOM    534  N LYS A 1      22.822  41.441 -11.348  0.00  0.00 -0.3428 N
ATOM    535  C LYS A 1      21.560  41.308 -12.092  0.00  0.00  0.1078 C
ATOM    536  C LYS A 1      20.424  40.765 -11.243  0.00  0.00  0.2428 C
ATOM    537  O LYS A 1      19.385  40.383 -11.795  0.00  0.00 -0.2727 O
ATOM    538  C LYS A 1      21.746  40.454 -13.339  0.00  0.00 -0.0220 C
ATOM    539  C LYS A 1      22.197  39.048 -12.946  0.00  0.00 -0.0332 C
ATOM    540  C LYS A 1      22.477  38.187 -14.122  0.00  0.00  0.0175 C
ATOM    541  N LYS A 1      21.439  37.201 -14.281  0.00  0.00 -0.3568 N
ATOM    542  C LYS A 1      20.242  37.255 -14.855  0.00  0.00  0.1852 C
ATOM    543  N LYS A 1      19.503  38.311 -15.145  0.00  0.00 -0.3702 N
ATOM    544  N LYS A 1      19.897  36.127 -15.497  0.00  0.00 -0.2696 N
ATOM    545  N LYS A 1      20.590  40.896  -9.952  0.00  0.00 -0.3403 N
ATOM    546  C LYS A 1      19.607  40.408  -8.973  0.00  0.00  0.1338 C
ATOM    547  C LYS A 1      18.994  41.597  -8.224  0.00  0.00  0.2480 C
ATOM    548  O LYS A 1      19.683  42.241  -7.425  0.00  0.00 -0.2724 O
ATOM    549  C LYS A 1      20.208  39.384  -7.910  0.00  0.00  0.0805 C
ATOM    550  O LYS A 1      20.851  38.334  -8.715  0.00  0.00 -0.3907 O
ATOM    551  C LYS A 1      19.123  38.863  -6.955  0.00  0.00 -0.0364 C
ATOM    552  N LYS A 1      17.687  41.741  -8.418  0.00  0.00 -0.3288 N
ATOM    553  C LYS A 1      16.953  42.824  -7.733  0.00  0.00  0.1106 C
ATOM    554  C LYS A 1      16.955  42.520  -6.242  0.00  0.00  0.2427 C
ATOM    555  O LYS A 1      16.739  41.356  -5.886  0.00  0.00 -0.2727 O
ATOM    556  C LYS A 1      15.557  42.749  -8.333  0.00  0.00 -0.0218 C
ATOM    557  C LYS A 1      15.759  42.092  -9.671  0.00  0.00 -0.0329 C
ATOM    558  C LYS A 1      16.887  41.095  -9.463  0.00  0.00  0.0215 C
ATOM    559  N LYS A 1      17.163  43.493  -5.401  0.00  0.00 -0.3452 N
ATOM    560  C LYS A 1      17.135  43.383  -3.947  0.00  0.00  0.0967 C
ATOM    561  C LYS A 1      18.328  42.710  -3.287  0.00  0.00  0.2396 C
ATOM    562  O LYS A 1      18.257  42.257  -2.126  0.00  0.00 -0.2730 O
ATOM    563  N LYS A 1      19.418  42.627  -4.018  0.00  0.00 -0.3407 N
ATOM    564  C LYS A 1      20.665  41.976  -3.588  0.00  0.00  0.1310 C
ATOM    565  C LYS A 1      21.139  42.582  -2.276  0.00  0.00  0.2451 C
ATOM    566  O LYS A 1      21.055  43.819  -2.125  0.00  0.00 -0.2726 O
ATOM    567  C LYS A 1      21.659  42.002  -4.737  0.00  0.00  0.0724 C
ATOM    568  O LYS A 1      23.015  41.835  -4.343  0.00  0.00 -0.3937 O
ATOM    569  N LYS A 1      21.646  41.775  -1.369  0.00  0.00 -0.3424 N
ATOM    570  C LYS A 1      22.254  42.196  -0.113  0.00  0.00  0.1078 C
ATOM    571  C LYS A 1      23.774  42.058   0.029  0.00  0.00  0.2427 C
ATOM    572  O LYS A 1      24.425  42.749   0.849  0.00  0.00 -0.2727 O
ATOM    573  C LYS A 1      21.615  41.555   1.127  0.00  0.00 -0.0220 C
ATOM    574  C LYS A 1      20.187  41.983   1.439  0.00  0.00 -0.0332 C
ATOM    575  C LYS A 1      20.209  43.299   2.123  0.00  0.00  0.0175 C
ATOM    576  N LYS A 1      18.928  43.771   2.617  0.00  0.00 -0.3568 N
ATOM    577  C LYS A 1      17.980  44.302   1.823  0.00  0.00  0.1852 C
ATOM    578  N LYS A 1      17.841  43.934   0.544  0.00  0.00 -0.3702 N
ATOM    579  N LYS A 1      17.571  45.545   2.146  0.00  0.00 -0.2696 N
ATOM    580  N LYS A 1      24.346  41.143  -0.705  0.00  0.00 -0.3420 N
ATOM    581  C LYS A 1      25.780  40.833  -0.695  0.00  0.00  0.1165 C
ATOM    582  C LYS A 1      26.315  40.718   0.731  0.00  0.00  0.2433 C
ATOM    583  O LYS A 1      27.255  41.471   1.060  0.00  0.00 -0.2727 O
ATOM    584  C LYS A 1      26.565  41.786  -1.589  0.00  0.00  0.0556 C
ATOM    585  C LYS A 1      27.982  41.328  -1.909  0.00  0.00  0.2195 C
ATOM    586  O LYS A 1      28.318  40.169  -1.652  0.00  0.00 -0.2753 O
ATOM    587  N LYS A 1      28.838  42.192  -2.436  0.00  0.00 -0.3696 N
ATOM    588  N LYS A 1      25.723  39.860   1.544  0.00  0.00 -0.3425 N
ATOM    589  C LYS A 1      26.153  39.690   2.930  0.00  0.00  0.1080 C
ATOM    590  C LYS A 1      27.518  39.011   3.085  0.00  0.00  0.2428 C
ATOM    591  O LYS A 1      28.167  39.197   4.141  0.00  0.00 -0.2727 O
ATOM    592  C LYS A 1      25.009  39.055   3.733  0.00  0.00 -0.0214 C
ATOM    593  C LYS A 1      23.815  39.998   3.979  0.00  0.00 -0.0447 C
ATOM    594  C LYS A 1      22.574  39.193   4.336  0.00  0.00 -0.0627 C
ATOM    595  C LYS A 1      24.156  40.969   5.110  0.00  0.00 -0.0627 C
ATOM    596  N LYS A 1      27.973  38.312   2.061  0.00  0.00 -0.3417 N
ATOM    597  C LYS A 1      29.299  37.680   2.111  0.00  0.00  0.1176 C
ATOM    598  C LYS A 1      30.390  38.598   1.589  0.00  0.00  0.2436 C
ATOM    599  O LYS A 1      31.573  38.229   1.568  0.00  0.00 -0.2727 O
ATOM    600  C LYS A 1      29.396  36.303   1.477  0.00  0.00  0.0332 C
ATOM    601  S LYS A 1      28.595  34.961   2.361  0.00  0.00 -0.0914 S
ATOM    602  N LYS A 1      29.964  39.681   0.971  0.00  0.00 -0.3420 N
ATOM    603  C LYS A 1      30.827  40.725   0.395  0.00  0.00  0.1165 C
ATOM    604  C LYS A 1      31.711  40.163  -0.702  0.00  0.00  0.2433 C
ATOM    605  O LYS A 1      32.947  40.331  -0.689  0.00  0.00 -0.2727 O
ATOM    606  C LYS A 1      31.589  41.488   1.483  0.00  0.00  0.0556 C
ATOM    607  C LYS A 1      32.126  42.812   0.957  0.00  0.00  0.2195 C
ATOM    608  O LYS A 1      31.351  43.589   0.396  0.00  0.00 -0.2753 O
ATOM    609  N LYS A 1      33.430  43.012   1.047  0.00  0.00 -0.3696 N
ATOM    610  N LYS A 1      31.149  39.408  -1.616  0.00  0.00 -0.3422 N
ATOM    611  C LYS A 1      31.904  38.780  -2.713  0.00  0.00  0.1105 C
ATOM    612  C LYS A 1      31.099  38.850  -4.013  0.00  0.00  0.2456 C
ATOM    613  O LYS A 1      29.864  38.688  -3.972  0.00  0.00 -0.2725 O
ATOM    614  C LYS A 1      32.183  37.255  -2.384  0.00  0.00 -0.0150 C
ATOM    615  C LYS A 1      30.882  36.639  -1.851  0.00  0.00 -0.0511 C
ATOM    616  C LYS A 1      33.437  37.003  -1.524  0.00  0.00 -0.0600 C
ATOM    617  C LYS A 1      30.936  35.120  -1.546  0.00  0.00 -0.0650 C
ATOM    618  N LYS A 1      31.828  38.795  -5.108  0.00  0.00 -0.3289 N
ATOM    619  C LYS A 1      31.195  38.634  -6.421  0.00  0.00  0.1106 C
ATOM    620  C LYS A 1      30.792  37.146  -6.446  0.00  0.00  0.2430 C
ATOM    621  O LYS A 1      31.576  36.273  -6.005  0.00  0.00 -0.2727 O
ATOM    622  C LYS A 1      32.261  38.967  -7.445  0.00  0.00 -0.0218 C
ATOM    623  C LYS A 1      33.555  39.029  -6.710  0.00  0.00 -0.0329 C
ATOM    624  C LYS A 1      33.276  39.023  -5.215  0.00  0.00  0.0215 C
ATOM    625  N LYS A 1      29.629  36.908  -7.033  0.00  0.00 -0.3417 N
ATOM    626  C LYS A 1      29.167  35.522  -7.236  0.00  0.00  0.1176 C
ATOM    627  C LYS A 1      30.150  34.716  -8.073  0.00  0.00  0.2437 C
ATOM    628  O LYS A 1      30.214  33.484  -7.880  0.00  0.00 -0.2727 O
ATOM    629  C LYS A 1      27.749  35.338  -7.747  0.00  0.00  0.0332 C
ATOM    630  S LYS A 1      26.471  36.160  -6.762  0.00  0.00 -0.0914 S
ATOM    631  N LYS A 1      30.769  35.294  -9.083  0.00  0.00 -0.3405 N
ATOM    632  C LYS A 1      31.775  34.671  -9.933  0.00  0.00  0.1310 C
ATOM    633  C LYS A 1      32.907  34.027  -9.109  0.00  0.00  0.2451 C
ATOM    634  O LYS A 1      33.338  32.939  -9.561  0.00  0.00 -0.2726 O
ATOM    635  C LYS A 1      32.381  35.643 -10.953  0.00  0.00  0.0724 C
ATOM    636  O LYS A 1      33.035  36.681 -10.235  0.00  0.00 -0.3937 O
ATOM    637  N LYS A 1      33.226  34.572  -7.950  0.00  0.00 -0.3427 N
ATOM    638  C LYS A 1      34.272  33.963  -7.107  0.00  0.00  0.1049 C
ATOM    639  C LYS A 1      33.869  32.604  -6.540  0.00  0.00  0.2424 C
ATOM    640  O LYS A 1      34.703  31.798  -6.081  0.00  0.00 -0.2727 O
ATOM    641  C LYS A 1      34.722  34.930  -6.020  0.00  0.00 -0.0356 C
ATOM    642  N LYS A 1      32.571  32.338  -6.519  0.00  0.00 -0.3425 N
ATOM    643  C LYS A 1      31.973  31.093  -6.042  0.00  0.00  0.1080 C
ATOM    644  C LYS A 1      32.060  29.962  -7.049  0.00  0.00  0.2427 C
ATOM    645  O LYS A 1      31.671  28.815  -6.739  0.00  0.00 -0.2727 O
ATOM    646  C LYS A 1      30.618  31.424  -5.431  0.00  0.00 -0.0214 C
ATOM    647  C LYS A 1      30.511  32.364  -4.244  0.00  0.00 -0.0447 C
ATOM    648  C LYS A 1      29.040  32.573  -3.857  0.00  0.00 -0.0627 C
ATOM    649  C LYS A 1      31.277  31.872  -3.020  0.00  0.00 -0.0627 C
ATOM    650  N LYS A 1      32.473  30.271  -8.267  0.00  0.00 -0.3425 N
ATOM    651  C LYS A 1      32.610  29.295  -9.347  0.00  0.00  0.1080 C
ATOM    652  C LYS A 1      34.047  28.841  -9.570  0.00  0.00  0.2428 C
ATOM    653  O LYS A 1      34.334  28.243 -10.622  0.00  0.00 -0.2727 O
ATOM    654  C LYS A 1      31.914  29.793 -10.614  0.00  0.00 -0.0214 C
ATOM    655  C LYS A 1      30.446  30.183 -10.573  0.00  0.00 -0.0447 C
ATOM    656  C LYS A 1      30.014  30.771 -11.916  0.00  0.00 -0.0627 C
ATOM    657  C LYS A 1      29.597  28.942 -10.329  0.00  0.00 -0.0627 C
ATOM    658  N LYS A 1      34.942  29.197  -8.676  0.00  0.00 -0.3405 N
ATOM    659  C LYS A 1      36.340  28.754  -8.727  0.00  0.00  0.1310 C
ATOM    660  C LYS A 1      36.474  27.245  -8.497  0.00  0.00  0.2452 C
ATOM    661  O LYS A 1      35.765  26.640  -7.681  0.00  0.00 -0.2726 O
ATOM    662  C LYS A 1      37.109  29.482  -7.633  0.00  0.00  0.0724 C
ATOM    663  O LYS A 1      38.484  29.212  -7.834  0.00  0.00 -0.3937 O
ATOM    664  N LYS A 1      37.619  26.742  -8.943  0.00  0.00 -0.3404 N
ATOM    665  C LYS A 1      38.008  25.343  -8.700  0.00  0.00  0.1310 C
ATOM    666  C LYS A 1      38.388  25.153  -7.233  0.00  0.00  0.2451 C
ATOM    667  O LYS A 1      38.314  24.055  -6.671  0.00  0.00 -0.2726 O
ATOM    668  C LYS A 1      39.107  24.868  -9.650  0.00  0.00  0.0724 C
ATOM    669  O LYS A 1      38.401  24.215 -10.691  0.00  0.00 -0.3937 O
ATOM    670  N LYS A 1      38.846  26.244  -6.668  0.00  0.00 -0.3419 N
ATOM    671  C LYS A 1      39.282  26.393  -5.271  0.00  0.00  0.1182 C
ATOM    672  C LYS A 1      37.999  26.657  -4.471  0.00  0.00  0.2433 C
ATOM    673  O LYS A 1      37.490  27.762  -4.712  0.00  0.00 -0.2727 O
ATOM    674  C LYS A 1      40.221  27.607  -5.212  0.00  0.00  0.0747 C
ATOM    675  C LYS A 1      40.762  28.041  -3.869  0.00  0.00  0.3055 C
ATOM    676  O LYS A 1      40.335  27.702  -2.742  0.00  0.00 -0.2524 O
ATOM    677  O LYS A 1      41.785  28.802  -3.933  0.00  0.00 -0.4812 O
ATOM    678  N LYS A 1      37.732  25.850  -3.461  0.00  0.00 -0.3422 N
ATOM    679  C LYS A 1      36.515  26.089  -2.658  0.00  0.00  0.1103 C
ATOM    680  C LYS A 1      36.582  27.142  -1.563  0.00  0.00  0.2431 C
ATOM    681  O LYS A 1      35.600  27.315  -0.801  0.00  0.00 -0.2727 O
ATOM    682  C LYS A 1      35.993  24.736  -2.046  0.00  0.00 -0.0150 C
ATOM    683  C LYS A 1      36.920  24.200  -0.934  0.00  0.00 -0.0511 C
ATOM    684  C LYS A 1      35.587  23.743  -3.163  0.00  0.00 -0.0600 C
ATOM    685  C LYS A 1      36.363  23.226   0.137  0.00  0.00 -0.0650 C
ATOM    686  N LYS A 1      37.742  27.786  -1.369  0.00  0.00 -0.3402 N
ATOM    687  C LYS A 1      37.913  28.772  -0.306  0.00  0.00  0.1336 C
ATOM    688  C LYS A 1      36.736  29.761  -0.161  0.00  0.00  0.2454 C
ATOM    689  O LYS A 1      36.341  29.983   1.000  0.00  0.00 -0.2726 O
ATOM    690  C LYS A 1      39.267  29.591  -0.423  0.00  0.00  0.0804 C
ATOM    691  O LYS A 1      40.339  28.592  -0.514  0.00  0.00 -0.3907 O
ATOM    692  C LYS A 1      39.419  30.553   0.766  0.00  0.00 -0.0364 C
ATOM    693  N LYS A 1      36.507  30.482  -1.242  0.00  0.00 -0.3427 N
ATOM    694  C LYS A 1      35.479  31.555  -1.244  0.00  0.00  0.1049 C
ATOM    695  C LYS A 1      34.125  31.066  -0.735  0.00  0.00  0.2425 C
ATOM    696  O LYS A 1      33.366  31.671   0.065  0.00  0.00 -0.2727 O
ATOM    697  C LYS A 1      35.366  32.212  -2.617  0.00  0.00 -0.0356 C
ATOM    698  N LYS A 1      33.746  29.919  -1.296  0.00  0.00 -0.3405 N
ATOM    699  C LYS A 1      32.494  29.220  -1.024  0.00  0.00  0.1310 C
ATOM    700  C LYS A 1      32.429  28.817   0.467  0.00  0.00  0.2451 C
ATOM    701  O LYS A 1      31.407  29.057   1.110  0.00  0.00 -0.2726 O
ATOM    702  C LYS A 1      32.282  28.035  -1.917  0.00  0.00  0.0724 C
ATOM    703  O LYS A 1      32.020  28.335  -3.260  0.00  0.00 -0.3937 O
ATOM    704  N LYS A 1      33.502  28.211   0.953  0.00  0.00 -0.3422 N
ATOM    705  C LYS A 1      33.595  27.846   2.381  0.00  0.00  0.1100 C
ATOM    706  C LYS A 1      33.477  29.105   3.261  0.00  0.00  0.2430 C
ATOM    707  O LYS A 1      32.716  29.020   4.244  0.00  0.00 -0.2727 O
ATOM    708  C LYS A 1      34.890  27.038   2.650  0.00  0.00 -0.0176 C
ATOM    709  C LYS A 1      35.125  26.987   4.151  0.00  0.00 -0.0603 C
ATOM    710  C LYS A 1      34.776  25.672   2.013  0.00  0.00 -0.0603 C
ATOM    711  N LYS A 1      34.199  30.163   2.912  0.00  0.00 -0.3420 N
ATOM    712  C LYS A 1      34.160  31.413   3.685  0.00  0.00  0.1165 C
ATOM    713  C LYS A 1      32.747  32.034   3.803  0.00  0.00  0.2433 C
ATOM    714  O LYS A 1      32.361  32.393   4.908  0.00  0.00 -0.2727 O
ATOM    715  C LYS A 1      35.168  32.472   3.247  0.00  0.00  0.0556 C
ATOM    716  C LYS A 1      36.582  32.083   3.642  0.00  0.00  0.2195 C
ATOM    717  O LYS A 1      37.546  32.671   3.120  0.00  0.00 -0.2753 O
ATOM    718  N LYS A 1      36.710  31.188   4.631  0.00  0.00 -0.3696 N
ATOM    719  N LYS A 1      32.096  31.996   2.670  0.00  0.00 -0.3417 N
ATOM    720  C LYS A 1      30.695  32.449   2.633  0.00  0.00  0.1176 C
ATOM    721  C LYS A 1      29.778  31.527   3.424  0.00  0.00  0.2436 C
ATOM    722  O LYS A 1      28.973  32.025   4.236  0.00  0.00 -0.2727 O
ATOM    723  C LYS A 1      30.291  32.704   1.185  0.00  0.00  0.0332 C
ATOM    724  S LYS A 1      28.644  33.431   1.046  0.00  0.00 -0.0914 S
ATOM    725  N LYS A 1      29.945  30.225   3.263  0.00  0.00 -0.3428 N
ATOM    726  C LYS A 1      29.134  29.227   3.969  0.00  0.00  0.1049 C
ATOM    727  C LYS A 1      29.236  29.330   5.491  0.00  0.00  0.2424 C
ATOM    728  O LYS A 1      28.222  29.180   6.179  0.00  0.00 -0.2727 O
ATOM    729  C LYS A 1      29.495  27.794   3.612  0.00  0.00 -0.0356 C
ATOM    730  N LYS A 1      30.424  29.628   5.987  0.00  0.00 -0.3425 N
ATOM    731  C LYS A 1      30.627  29.912   7.419  0.00  0.00  0.1077 C
ATOM    732  C LYS A 1      29.802  31.115   7.906  0.00  0.00  0.2427 C
ATOM    733  O LYS A 1      29.296  31.011   9.027  0.00  0.00 -0.2727 O
ATOM    734  C LYS A 1      32.100  30.112   7.775  0.00  0.00 -0.0236 C
ATOM    735  C LYS A 1      32.874  28.792   7.697  0.00  0.00 -0.0496 C
ATOM    736  C LYS A 1      34.358  29.071   7.879  0.00  0.00 -0.0408 C
ATOM    737  C LYS A 1      35.205  27.816   7.938  0.00  0.00 -0.0077 C
ATOM    738  N LYS A 1      36.610  28.242   8.169  0.00  0.00 -0.3305 N
ATOM    739  N LYS A 1      29.660  32.101   7.049  0.00  0.00 -0.3425 N
ATOM    740  C LYS A 1      28.811  33.263   7.379  0.00  0.00  0.1077 C
ATOM    741  C LYS A 1      27.333  32.905   7.386  0.00  0.00  0.2427 C
ATOM    742  O LYS A 1      26.570  33.318   8.272  0.00  0.00 -0.2727 O
ATOM    743  C LYS A 1      29.087  34.456   6.470  0.00  0.00 -0.0236 C
ATOM    744  C LYS A 1      30.537  34.927   6.563  0.00  0.00 -0.0496 C
ATOM    745  C LYS A 1      30.841  36.073   5.610  0.00  0.00 -0.0408 C
ATOM    746  C LYS A 1      32.340  36.293   5.510  0.00  0.00 -0.0077 C
ATOM    747  N LYS A 1      32.569  37.524   4.708  0.00  0.00 -0.3305 N
ATOM    748  N LYS A 1      26.897  32.127   6.416  0.00  0.00 -0.3423 N
ATOM    749  C LYS A 1      25.520  31.693   6.266  0.00  0.00  0.1103 C
ATOM    750  C LYS A 1      25.030  30.871   7.453  0.00  0.00  0.2430 C
ATOM    751  O LYS A 1      24.059  31.254   8.126  0.00  0.00 -0.2727 O
ATOM    752  C LYS A 1      25.307  30.997   4.896  0.00  0.00 -0.0150 C
ATOM    753  C LYS A 1      25.643  31.910   3.702  0.00  0.00 -0.0511 C
ATOM    754  C LYS A 1      23.887  30.386   4.817  0.00  0.00 -0.0600 C
ATOM    755  C LYS A 1      25.620  31.204   2.321  0.00  0.00 -0.0650 C
ATOM    756  N LYS A 1      25.875  29.966   7.915  0.00  0.00 -0.3423 N
ATOM    757  C LYS A 1      25.488  29.009   8.955  0.00  0.00  0.1100 C
ATOM    758  C LYS A 1      25.431  29.697  10.316  0.00  0.00  0.2431 C
ATOM    759  O LYS A 1      24.737  29.212  11.233  0.00  0.00 -0.2727 O
ATOM    760  C LYS A 1      26.398  27.774   8.859  0.00  0.00 -0.0176 C
ATOM    761  C LYS A 1      27.811  28.138   9.279  0.00  0.00 -0.0603 C
ATOM    762  C LYS A 1      25.834  26.594   9.632  0.00  0.00 -0.0603 C
ATOM    763  N LYS A 1      26.205  30.752  10.409  0.00  0.00 -0.3405 N
ATOM    764  C LYS A 1      26.297  31.529  11.650  0.00  0.00  0.1310 C
ATOM    765  C LYS A 1      25.124  32.495  11.765  0.00  0.00  0.2451 C
ATOM    766  O LYS A 1      24.995  33.131  12.820  0.00  0.00 -0.2726 O
ATOM    767  C LYS A 1      27.647  32.194  11.723  0.00  0.00  0.0724 C
ATOM    768  O LYS A 1      28.714  31.264  11.818  0.00  0.00 -0.3937 O
ATOM    769  N LYS A 1      24.307  32.599  10.750  0.00  0.00 -0.3419 N
ATOM    770  C LYS A 1      23.162  33.495  10.650  0.00  0.00  0.1182 C
ATOM    771  C LYS A 1      21.924  33.183  11.481  0.00  0.00  0.2431 C
ATOM    772  O LYS A 1      21.132  34.143  11.678  0.00  0.00 -0.2727 O
ATOM    773  C LYS A 1      22.806  33.854   9.207  0.00  0.00  0.0747 C
ATOM    774  C LYS A 1      22.426  35.320   9.009  0.00  0.00  0.3055 C
ATOM    775  O LYS A 1      23.248  36.223   9.266  0.00  0.00 -0.2524 O
ATOM    776  O LYS A 1      21.276  35.519   8.551  0.00  0.00 -0.4812 O
ATOM    777  N LYS A 1      21.723  31.942  11.887  0.00  0.00 -0.3452 N
ATOM    778  C LYS A 1      20.622  31.656  12.823  0.00  0.00  0.0967 C
ATOM    779  C LYS A 1      19.812  30.413  12.505  0.00  0.00  0.2396 C
ATOM    780  O LYS A 1      19.195  29.898  13.458  0.00  0.00 -0.2730 O
ATOM    781  N LYS A 1      19.805  30.005  11.244  0.00  0.00 -0.3423 N
ATOM    782  C LYS A 1      19.076  28.799  10.848  0.00  0.00  0.1165 C
ATOM    783  C LYS A 1      19.990  27.600  10.597  0.00  0.00  0.2431 C
ATOM    784  O LYS A 1      19.472  26.579  10.117  0.00  0.00 -0.2727 O
ATOM    785  C LYS A 1      17.976  29.046   9.824  0.00  0.00  0.0556 C
ATOM    786  C LYS A 1      16.708  28.245  10.063  0.00  0.00  0.2195 C
ATOM    787  O LYS A 1      16.513  27.577  11.098  0.00  0.00 -0.2753 O
ATOM    788  N LYS A 1      15.672  28.428   9.240  0.00  0.00 -0.3696 N
ATOM    789  N LYS A 1      21.240  27.711  10.997  0.00  0.00 -0.3452 N
ATOM    790  C LYS A 1      22.177  26.567  10.860  0.00  0.00  0.0967 C
ATOM    791  C LYS A 1      22.173  26.142   9.388  0.00  0.00  0.2395 C
ATOM    792  O LYS A 1      22.151  27.040   8.541  0.00  0.00 -0.2730 O
ATOM    793  N LYS A 1      22.185  24.847   9.115  0.00  0.00 -0.3427 N
ATOM    794  C LYS A 1      22.278  24.370   7.724  0.00  0.00  0.1085 C
ATOM    795  C LYS A 1      20.915  24.309   7.063  0.00  0.00  0.2428 C
ATOM    796  O LYS A 1      20.902  23.921   5.871  0.00  0.00 -0.2727 O
ATOM    797  C LYS A 1      23.036  23.048   7.632  0.00  0.00 -0.0146 C
ATOM    798  C LYS A 1      24.519  23.221   7.871  0.00  0.00 -0.0046 C
ATOM    799  S LYS A 1      25.379  21.660   7.491  0.00  0.00 -0.1653 S
ATOM    800  C LYS A 1      25.369  21.706   5.703  0.00  0.00 -0.0184 C
ATOM    801  N LYS A 1      19.896  24.839   7.735  0.00  0.00 -0.3420 N
ATOM    802  C LYS A 1      18.557  24.898   7.103  0.00  0.00  0.1165 C
ATOM    803  C LYS A 1      18.566  25.831   5.892  0.00  0.00  0.2433 C
ATOM    804  O LYS A 1      17.678  25.748   5.021  0.00  0.00 -0.2727 O
ATOM    805  C LYS A 1      17.420  25.150   8.084  0.00  0.00  0.0556 C
ATOM    806  C LYS A 1      17.207  23.938   8.967  0.00  0.00  0.2195 C
ATOM    807  O LYS A 1      16.836  22.867   8.443  0.00  0.00 -0.2753 O
ATOM    808  N LYS A 1      17.542  24.047  10.255  0.00  0.00 -0.3696 N
ATOM    809  N LYS A 1      19.617  26.647   5.800  0.00  0.00 -0.3428 N
ATOM    810  C LYS A 1      19.824  27.514   4.634  0.00  0.00  0.1049 C
ATOM    811  C LYS A 1      20.007  26.744   3.329  0.00  0.00  0.2425 C
ATOM    812  O LYS A 1      19.734  27.292   2.260  0.00  0.00 -0.2727 O
ATOM    813  C LYS A 1      21.060  28.374   4.877  0.00  0.00 -0.0356 C
ATOM    814  N LYS A 1      20.371  25.465   3.434  0.00  0.00 -0.3422 N
ATOM    815  C LYS A 1      20.532  24.624   2.241  0.00  0.00  0.1118 C
ATOM    816  C LYS A 1      19.317  23.688   2.110  0.00  0.00  0.2431 C
ATOM    817  O LYS A 1      19.240  22.816   2.993  0.00  0.00 -0.2727 O
ATOM    818  C LYS A 1      21.840  23.826   2.338  0.00  0.00  0.0038 C
ATOM    819  C LYS A 1      23.000  24.736   2.026  0.00  0.00 -0.0201 C
ATOM    820  C LYS A 1      23.360  25.234   0.803  0.00  0.00  0.0050 C
ATOM    821  C LYS A 1      23.798  25.437   2.991  0.00  0.00  0.0027 C
ATOM    822  N LYS A 1      24.414  26.102   0.952  0.00  0.00 -0.3609 N
ATOM    823  C LYS A 1      24.711  26.237   2.272  0.00  0.00  0.0456 C
ATOM    824  C LYS A 1      23.833  25.426   4.379  0.00  0.00 -0.0526 C
ATOM    825  C LYS A 1      25.682  26.985   2.917  0.00  0.00 -0.0380 C
ATOM    826  C LYS A 1      24.773  26.200   5.033  0.00  0.00 -0.0615 C
ATOM    827  C LYS A 1      25.691  26.960   4.298  0.00  0.00 -0.0602 C
ATOM    828  N LYS A 1      18.487  23.925   1.101  0.00  0.00 -0.3423 N
ATOM    829  C LYS A 1      17.265  23.096   1.025  0.00  0.00  0.1100 C
ATOM    830  C LYS A 1      17.573  21.611   0.884  0.00  0.00  0.2430 C
ATOM    831  O LYS A 1      16.923  20.811   1.587  0.00  0.00 -0.2727 O
ATOM    832  C LYS A 1      16.146  23.660   0.145  0.00  0.00 -0.0176 C
ATOM    833  C LYS A 1      16.607  23.905  -1.285  0.00  0.00 -0.0603 C
ATOM    834  C LYS A 1      14.901  22.783   0.136  0.00  0.00 -0.0603 C
ATOM    835  N LYS A 1      18.562  21.308   0.075  0.00  0.00 -0.3428 N
ATOM    836  C LYS A 1      18.972  19.935  -0.237  0.00  0.00  0.1049 C
ATOM    837  C LYS A 1      19.502  19.244   1.006  0.00  0.00  0.2425 C
ATOM    838  O LYS A 1      19.197  18.046   1.174  0.00  0.00 -0.2727 O
ATOM    839  C LYS A 1      19.857  19.777  -1.455  0.00  0.00 -0.0356 C
ATOM    840  N LYS A 1      20.121  19.983   1.892  0.00  0.00 -0.3422 N
ATOM    841  C LYS A 1      20.551  19.500   3.202  0.00  0.00  0.1118 C
ATOM    842  C LYS A 1      19.343  19.085   4.046  0.00  0.00  0.2431 C
ATOM    843  O LYS A 1      19.284  17.986   4.643  0.00  0.00 -0.2727 O
ATOM    844  C LYS A 1      21.486  20.451   3.925  0.00  0.00  0.0038 C
ATOM    845  C LYS A 1      21.858  19.904   5.252  0.00  0.00 -0.0201 C
ATOM    846  C LYS A 1      22.856  18.975   5.486  0.00  0.00  0.0050 C
ATOM    847  C LYS A 1      21.199  20.093   6.504  0.00  0.00  0.0027 C
ATOM    848  N LYS A 1      22.848  18.592   6.808  0.00  0.00 -0.3609 N
ATOM    849  C LYS A 1      21.798  19.221   7.435  0.00  0.00  0.0456 C
ATOM    850  C LYS A 1      20.182  20.959   6.908  0.00  0.00 -0.0526 C
ATOM    851  C LYS A 1      21.492  19.284   8.784  0.00  0.00 -0.0380 C
ATOM    852  C LYS A 1      19.818  20.954   8.240  0.00  0.00 -0.0615 C
ATOM    853  C LYS A 1      20.443  20.110   9.162  0.00  0.00 -0.0602 C
ATOM    854  N LYS A 1      18.438  20.038   4.228  0.00  0.00 -0.3425 N
ATOM    855  C LYS A 1      17.185  19.830   4.955  0.00  0.00  0.1078 C
ATOM    856  C LYS A 1      16.472  18.593   4.391  0.00  0.00  0.2427 C
ATOM    857  O LYS A 1      16.000  17.792   5.220  0.00  0.00 -0.2727 O
ATOM    858  C LYS A 1      16.214  20.990   4.944  0.00  0.00 -0.0220 C
ATOM    859  C LYS A 1      16.592  22.438   5.091  0.00  0.00 -0.0332 C
ATOM    860  C LYS A 1      15.368  23.296   5.135  0.00  0.00  0.0175 C
ATOM    861  N LYS A 1      14.776  23.555   3.836  0.00  0.00 -0.3568 N
ATOM    862  C LYS A 1      14.785  24.695   3.143  0.00  0.00  0.1852 C
ATOM    863  N LYS A 1      15.596  25.721   3.383  0.00  0.00 -0.3702 N
ATOM    864  N LYS A 1      13.717  25.008   2.398  0.00  0.00 -0.2696 N
ATOM    865  N LYS A 1      16.307  18.521   3.074  0.00  0.00 -0.3420 N
ATOM    866  C LYS A 1      15.464  17.463   2.491  0.00  0.00  0.1165 C
ATOM    867  C LYS A 1      16.111  16.083   2.586  0.00  0.00  0.2433 C
ATOM    868  O LYS A 1      15.454  15.054   2.808  0.00  0.00 -0.2727 O
ATOM    869  C LYS A 1      14.966  17.779   1.085  0.00  0.00  0.0556 C
ATOM    870  C LYS A 1      14.003  18.961   1.018  0.00  0.00  0.2195 C
ATOM    871  O LYS A 1      13.454  19.344   2.059  0.00  0.00 -0.2753 O
ATOM    872  N LYS A 1      13.840  19.555  -0.159  0.00  0.00 -0.3696 N
ATOM    873  N LYS A 1      17.401  16.041   2.355  0.00  0.00 -0.3425 N
ATOM    874  C LYS A 1      18.156  14.836   2.042  0.00  0.00  0.1078 C
ATOM    875  C LYS A 1      19.258  14.440   2.991  0.00  0.00  0.2428 C
ATOM    876  O LYS A 1      19.505  13.217   3.097  0.00  0.00 -0.2727 O
ATOM    877  C LYS A 1      18.622  14.910   0.576  0.00  0.00 -0.0220 C
ATOM    878  C LYS A 1      17.395  14.614  -0.300  0.00  0.00 -0.0332 C
ATOM    879  C LYS A 1      17.729  14.399  -1.731  0.00  0.00  0.0175 C
ATOM    880  N LYS A 1      18.153  15.677  -2.301  0.00  0.00 -0.3568 N
ATOM    881  C LYS A 1      17.826  16.080  -3.535  0.00  0.00  0.1852 C
ATOM    882  N LYS A 1      17.378  15.225  -4.456  0.00  0.00 -0.3702 N
ATOM    883  N LYS A 1      17.735  17.388  -3.796  0.00  0.00 -0.2696 N
ATOM    884  N LYS A 1      19.743  15.372   3.773  0.00  0.00 -0.3417 N
ATOM    885  C LYS A 1      20.843  15.041   4.708  0.00  0.00  0.1176 C
ATOM    886  C LYS A 1      20.448  14.933   6.159  0.00  0.00  0.2436 C
ATOM    887  O LYS A 1      20.972  14.116   6.940  0.00  0.00 -0.2727 O
ATOM    888  C LYS A 1      21.991  16.018   4.426  0.00  0.00  0.0332 C
ATOM    889  S LYS A 1      22.563  16.009   2.739  0.00  0.00 -0.0914 S
ATOM    890  N LYS A 1      19.714  15.918   6.619  0.00  0.00 -0.3425 N
ATOM    891  C LYS A 1      19.332  16.085   8.025  0.00  0.00  0.1077 C
ATOM    892  C LYS A 1      18.634  14.821   8.518  0.00  0.00  0.2425 C
ATOM    893  O LYS A 1      17.819  14.234   7.785  0.00  0.00 -0.2727 O
ATOM    894  C LYS A 1      18.492  17.363   8.126  0.00  0.00 -0.0236 C
ATOM    895  C LYS A 1      17.930  17.512   9.547  0.00  0.00 -0.0496 C
ATOM    896  C LYS A 1      16.745  18.481   9.554  0.00  0.00 -0.0408 C
ATOM    897  C LYS A 1      16.658  19.147  10.918  0.00  0.00 -0.0077 C
ATOM    898  N LYS A 1      15.454  20.010  11.047  0.00  0.00 -0.3305 N
ATOM    899  N LYS A 1      19.152  14.318   9.635  0.00  0.00 -0.3453 N
ATOM    900  C LYS A 1      18.558  13.126  10.267  0.00  0.00  0.0967 C
ATOM    901  C LYS A 1      19.018  11.781   9.733  0.00  0.00  0.2396 C
ATOM    902  O LYS A 1      18.499  10.733  10.164  0.00  0.00 -0.2730 O
ATOM    903  N LYS A 1      19.892  11.802   8.740  0.00  0.00 -0.3405 N
ATOM    904  C LYS A 1      20.473  10.578   8.171  0.00  0.00  0.1335 C
ATOM    905  C LYS A 1      21.868  10.375   8.761  0.00  0.00  0.2454 C
ATOM    906  O LYS A 1      22.321  11.119   9.650  0.00  0.00 -0.2726 O
ATOM    907  C LYS A 1      20.440  10.571   6.598  0.00  0.00  0.0804 C
ATOM    908  O LYS A 1      21.560  11.404   6.161  0.00  0.00 -0.3907 O
ATOM    909  C LYS A 1      19.095  11.104   6.074  0.00  0.00 -0.0364 C
ATOM    910  N LYS A 1      22.392   9.213   8.431  0.00  0.00 -0.3418 N
ATOM    911  C LYS A 1      23.768   8.830   8.756  0.00  0.00  0.1182 C
ATOM    912  C LYS A 1      24.713   9.543   7.779  0.00  0.00  0.2433 C
ATOM    913  O LYS A 1      25.178   8.950   6.780  0.00  0.00 -0.2727 O
ATOM    914  C LYS A 1      23.934   7.313   8.738  0.00  0.00  0.0747 C
ATOM    915  C LYS A 1      25.347   6.900   9.121  0.00  0.00  0.3055 C
ATOM    916  O LYS A 1      26.051   7.633   9.830  0.00  0.00 -0.2524 O
ATOM    917  O LYS A 1      25.715   5.746   8.804  0.00  0.00 -0.4812 O
ATOM    918  N LYS A 1      24.988  10.793   8.094  0.00  0.00 -0.3423 N
ATOM    919  C LYS A 1      25.886  11.637   7.306  0.00  0.00  0.1100 C
ATOM    920  C LYS A 1      27.342  11.199   7.304  0.00  0.00  0.2430 C
ATOM    921  O LYS A 1      28.099  11.604   6.406  0.00  0.00 -0.2727 O
ATOM    922  C LYS A 1      25.721  13.134   7.630  0.00  0.00 -0.0176 C
ATOM    923  C LYS A 1      24.356  13.655   7.183  0.00  0.00 -0.0603 C
ATOM    924  C LYS A 1      26.088  13.478   9.055  0.00  0.00 -0.0603 C
ATOM    925  N LYS A 1      27.701  10.430   8.306  0.00  0.00 -0.3425 N
ATOM    926  C LYS A 1      29.021   9.783   8.389  0.00  0.00  0.1082 C
ATOM    927  C LYS A 1      29.317   8.861   7.207  0.00  0.00  0.2427 C
ATOM    928  O LYS A 1      30.480   8.669   6.820  0.00  0.00 -0.2727 O
ATOM    929  C LYS A 1      29.088   9.048   9.728  0.00  0.00 -0.0149 C
ATOM    930  C LYS A 1      30.530   8.965  10.167  0.00  0.00  0.0287 C
ATOM    931  C LYS A 1      30.615   8.877  11.674  0.00  0.00  0.2170 C
ATOM    932  O LYS A 1      31.368   9.632  12.283  0.00  0.00 -0.2754 O
ATOM    933  N LYS A 1      29.884   7.871  12.151  0.00  0.00 -0.3697 N
ATOM    934  N LYS A 1      28.300   8.271   6.576  0.00  0.00 -0.3428 N
ATOM    935  C LYS A 1      28.390   7.548   5.311  0.00  0.00  0.1049 C
ATOM    936  C LYS A 1      29.186   8.290   4.227  0.00  0.00  0.2425 C
ATOM    937  O LYS A 1      30.031   7.710   3.523  0.00  0.00 -0.2727 O
ATOM    938  C LYS A 1      26.999   7.244   4.783  0.00  0.00 -0.0356 C
ATOM    939  N LYS A 1      29.021   9.616   4.240  0.00  0.00 -0.3422 N
ATOM    940  C LYS A 1      29.703  10.502   3.283  0.00  0.00  0.1118 C
ATOM    941  C LYS A 1      31.218  10.581   3.392  0.00  0.00  0.2431 C
ATOM    942  O LYS A 1      31.905  10.942   2.412  0.00  0.00 -0.2727 O
ATOM    943  C LYS A 1      29.027  11.872   3.347  0.00  0.00  0.0038 C
ATOM    944  C LYS A 1      27.621  11.735   2.850  0.00  0.00 -0.0201 C
ATOM    945  C LYS A 1      26.485  11.608   3.588  0.00  0.00  0.0050 C
ATOM    946  C LYS A 1      27.241  11.547   1.481  0.00  0.00  0.0027 C
ATOM    947  N LYS A 1      25.405  11.458   2.774  0.00  0.00 -0.3609 N
ATOM    948  C LYS A 1      25.827  11.391   1.479  0.00  0.00  0.0456 C
ATOM    949  C LYS A 1      27.947  11.468   0.283  0.00  0.00 -0.0526 C
ATOM    950  C LYS A 1      25.111  11.184   0.311  0.00  0.00 -0.0380 C
ATOM    951  C LYS A 1      27.222  11.329  -0.886  0.00  0.00 -0.0615 C
ATOM    952  C LYS A 1      25.835  11.127  -0.869  0.00  0.00 -0.0602 C
ATOM    953  N LYS A 1      31.741  10.269   4.554  0.00  0.00 -0.3423 N
ATOM    954  C LYS A 1      33.186  10.292   4.801  0.00  0.00  0.1103 C
ATOM    955  C LYS A 1      33.863   8.955   5.024  0.00  0.00  0.2430 C
ATOM    956  O LYS A 1      35.100   8.892   5.134  0.00  0.00 -0.2727 O
ATOM    957  C LYS A 1      33.504  11.403   5.863  0.00  0.00 -0.0150 C
ATOM    958  C LYS A 1      32.956  10.984   7.234  0.00  0.00 -0.0511 C
ATOM    959  C LYS A 1      33.024  12.804   5.387  0.00  0.00 -0.0600 C
ATOM    960  C LYS A 1      33.729  11.437   8.488  0.00  0.00 -0.0650 C
ATOM    961  N LYS A 1      33.080   7.898   5.131  0.00  0.00 -0.3425 N
ATOM    962  C LYS A 1      33.594   6.534   5.320  0.00  0.00  0.1078 C
ATOM    963  C LYS A 1      34.311   6.113   4.036  0.00  0.00  0.2425 C
ATOM    964  O LYS A 1      33.843   6.337   2.906  0.00  0.00 -0.2727 O
ATOM    965  C LYS A 1      32.476   5.551   5.650  0.00  0.00 -0.0220 C
ATOM    966  C LYS A 1      32.117   5.596   7.145  0.00  0.00 -0.0332 C
ATOM    967  C LYS A 1      31.277   4.392   7.482  0.00  0.00  0.0175 C
ATOM    968  N LYS A 1      30.282   4.754   8.466  0.00  0.00 -0.3568 N
ATOM    969  C LYS A 1      28.984   4.993   8.331  0.00  0.00  0.1852 C
ATOM    970  N LYS A 1      28.334   4.690   7.207  0.00  0.00 -0.3702 N
ATOM    971  N LYS A 1      28.392   5.549   9.392  0.00  0.00 -0.2696 N
ATOM    972  N LYS A 1      35.497   5.568   4.243  0.00  0.00 -0.3453 N
ATOM    973  C LYS A 1      36.291   5.058   3.102  0.00  0.00  0.0967 C
ATOM    974  C LYS A 1      37.334   6.066   2.658  0.00  0.00  0.2396 C
ATOM    975  O LYS A 1      38.220   5.729   1.855  0.00  0.00 -0.2730 O
ATOM    976  N LYS A 1      37.335   7.221   3.297  0.00  0.00 -0.3420 N
ATOM    977  C LYS A 1      38.234   8.333   2.961  0.00  0.00  0.1176 C
ATOM    978  C LYS A 1      39.422   8.382   3.925  0.00  0.00  0.2436 C
ATOM    979  O LYS A 1      39.206   8.267   5.138  0.00  0.00 -0.2727 O
ATOM    980  C LYS A 1      37.453   9.628   2.990  0.00  0.00  0.0332 C
ATOM    981  S LYS A 1      36.010   9.816   1.936  0.00  0.00 -0.0914 S
ATOM    982  N LYS A 1      40.586   8.695   3.393  0.00  0.00 -0.3425 N
ATOM    983  C LYS A 1      41.774   8.960   4.217  0.00  0.00  0.1078 C
ATOM    984  C LYS A 1      41.820  10.438   4.578  0.00  0.00  0.2428 C
ATOM    985  O LYS A 1      41.976  11.291   3.694  0.00  0.00 -0.2727 O
ATOM    986  C LYS A 1      43.047   8.304   3.707  0.00  0.00 -0.0220 C
ATOM    987  C LYS A 1      43.231   6.886   4.280  0.00  0.00 -0.0332 C
ATOM    988  C LYS A 1      43.833   6.911   5.651  0.00  0.00  0.0175 C
ATOM    989  N LYS A 1      45.246   7.263   5.636  0.00  0.00 -0.3568 N
ATOM    990  C LYS A 1      45.862   8.258   6.281  0.00  0.00  0.1852 C
ATOM    991  N LYS A 1      45.241   9.069   7.151  0.00  0.00 -0.3702 N
ATOM    992  N LYS A 1      47.134   8.554   5.973  0.00  0.00 -0.2696 N
ATOM    993  N LYS A 1      41.289  10.715   5.771  0.00  0.00 -0.3409 N
ATOM    994  C LYS A 1      41.094  12.084   6.273  0.00  0.00  0.1268 C
ATOM    995  C LYS A 1      42.119  12.382   7.370  0.00  0.00  0.3257 C
ATOM    996  O LYS A 1      41.730  12.276   8.559  0.00  0.00 -0.2500 O
ATOM    997  C LYS A 1      39.635  12.335   6.646  0.00  0.00 -0.0196 C
ATOM    998  C LYS A 1      38.689  12.917   5.620  0.00  0.00 -0.0446 C
ATOM    999  C LYS A 1      39.112  12.657   4.191  0.00  0.00 -0.0627 C
ATOM   1000  C LYS A 1      37.310  12.325   5.886  0.00  0.00 -0.0627 C
ATOM   1001  O LYS A 1      43.232  12.675   6.905  0.00  0.00 -0.4797 O
ATOM   1002  O LYS A 1      23.434  40.063  -6.661  0.00  0.00 -0.4115 O
ATOM   1003  O LYS A 1      31.994  26.416  -6.047  0.00  0.00 -0.4115 O
ATOM   1004  O LYS A 1      30.250  13.337   9.787  0.00  0.00 -0.4115 O
ATOM   1005  O LYS A 1      22.384  42.331  -8.165  0.00  0.00 -0.4115 O
ATOM   1006  O LYS A 1      29.239  27.621  -3.670  0.00  0.00 -0.4115 O
ATOM   1007  O LYS A 1      29.464  37.761 -10.492  0.00  0.00 -0.4115 O
ATOM   1008  O LYS A 1      20.807  36.305 -11.082  0.00  0.00 -0.4115 O
ATOM   1009  O LYS A 1      41.318  17.849  -1.378  0.00  0.00 -0.4115 O
ATOM   1010  O LYS A 1      34.697  29.056  -4.039  0.00  0.00 -0.4115 O
ATOM   1011  O LYS A 1      26.871  17.298  13.496  0.00  0.00 -0.4115 O
ATOM   1012  O LYS A 1      32.131  11.050  -5.817  0.00  0.00 -0.4115 O
ATOM   1013  O LYS A 1      23.468  40.040  -2.372  0.00  0.00 -0.4115 O
ATOM   1014  O LYS A 1      21.390  45.524 -11.035  0.00  0.00 -0.4115 O
ATOM   1015  O LYS A 1      34.490  26.578  -5.741  0.00  0.00 -0.4115 O
ATOM   1016  O LYS A 1      16.422  34.139  -3.527  0.00  0.00 -0.4115 O
ATOM   1017  O LYS A 1      21.374  29.926   8.946  0.00  0.00 -0.4115 O
ATOM   1018  O LYS A 1      41.048  12.539  -0.011  0.00  0.00 -0.4115 O
ATOM   1019  O LYS A 1      32.794  35.686   2.558  0.00  0.00 -0.4115 O
ATOM   1020  O LYS A 1      49.648   8.964   6.343  0.00  0.00 -0.4115 O
ATOM   1021  O LYS A 1      14.452  34.901 -13.339  0.00  0.00 -0.4115 O
ATOM   1022  O LYS A 1      22.930  10.839   4.044  0.00  0.00 -0.4115 O
ATOM   1023  O LYS A 1      16.012  18.490  -2.200  0.00  0.00 -0.4115 O
ATOM   1024  O LYS A 1      12.130  21.587   3.044  0.00  0.00 -0.4115 O
ATOM   1025  O LYS A 1      15.684  38.922  -5.813  0.00  0.00 -0.4115 O
ATOM   1026  O LYS A 1      10.652  24.228   3.428  0.00  0.00 -0.4115 O
ATOM   1027  O LYS A 1      44.070  17.975   2.852  0.00  0.00 -0.4115 O
ATOM   1028  O LYS A 1      32.029  13.080  -8.110  0.00  0.00 -0.4115 O
ATOM   1029  O LYS A 1      36.425  19.613  15.174  0.00  0.00 -0.4115 O
ATOM   1030  O LYS A 1      37.941  30.505  -3.686  0.00  0.00 -0.4115 O
ATOM   1031  O LYS A 1      30.710  42.741  -6.289  0.00  0.00 -0.4115 O
ATOM   1032  O LYS A 1      23.922  44.367  -7.653  0.00  0.00 -0.4115 O
ATOM   1033  O LYS A 1      33.829  34.252   0.626  0.00  0.00 -0.4115 O
ATOM   1034  O LYS A 1      29.613  40.730  -9.602  0.00  0.00 -0.4115 O
ATOM   1035  O LYS A 1      23.563   7.995   4.406  0.00  0.00 -0.4115 O
ATOM   1036  O LYS A 1      31.511  42.362  -4.183  0.00  0.00 -0.4115 O
ATOM   1037  O LYS A 1      21.882  29.536 -15.013  0.00  0.00 -0.4115 O
ATOM   1038  O LYS A 1      37.763  20.913   9.782  0.00  0.00 -0.4115 O
ATOM   1039  O LYS A 1      42.338  17.481   5.165  0.00  0.00 -0.4115 O
ATOM   1040  O LYS A 1      23.344  39.739  -4.358  0.00  0.00 -0.4115 O
ATOM   1041  O LYS A 1      22.984  29.224  13.124  0.00  0.00 -0.4115 O
ATOM   1042  O LYS A 1      30.778   7.794  -3.514  0.00  0.00 -0.4115 O
ATOM   1043  O LYS A 1      42.965  14.657   4.991  0.00  0.00 -0.4115 O
ATOM   1044  O LYS A 1      36.927  17.948 -13.093  0.00  0.00 -0.4115 O
ATOM   1045  O LYS A 1      35.412  25.852 -11.575  0.00  0.00 -0.4115 O
ATOM   1046  O LYS A 1      37.428  32.540  -5.787  0.00  0.00 -0.4115 O
ATOM   1047  O LYS A 1      37.317   8.592   7.456  0.00  0.00 -0.4115 O
ATOM   1048  O LYS A 1       9.314  36.705 -11.546  0.00  0.00 -0.4115 O
ATOM   1049  O LYS A 1      39.972  23.760  -2.655  0.00  0.00 -0.4115 O
ATOM   1050  O LYS A 1      22.128  30.274  -0.543  0.00  0.00 -0.4115 O
ATOM   1051  O LYS A 1      22.244  15.813  10.000  0.00  0.00 -0.4115 O
ATOM   1052  O LYS A 1      40.729   9.223   0.292  0.00  0.00 -0.4115 O
ATOM   1053  O LYS A 1      12.500  15.267   4.097  0.00  0.00 -0.4115 O
ATOM   1054  O LYS A 1      20.372  28.618  -2.353  0.00  0.00 -0.4115 O
ATOM   1055  O LYS A 1      22.793  15.462  -6.673  0.00  0.00 -0.4115 O
ATOM   1056  O LYS A 1      23.138  31.809  15.121  0.00  0.00 -0.4115 O
ATOM   1057  O LYS A 1      22.671  38.691   8.245  0.00  0.00 -0.4115 O
ATOM   1058  O LYS A 1      33.966  33.112   6.837  0.00  0.00 -0.4115 O
ATOM   1059  O LYS A 1      19.572  25.423  -1.420  0.00  0.00 -0.4115 O
ATOM   1060  O LYS A 1      14.790  15.672   7.259  0.00  0.00 -0.4115 O
ATOM   1061  O LYS A 1      19.112  28.022 -14.647  0.00  0.00 -0.4115 O
ATOM   1062  O LYS A 1      17.302  39.059 -12.453  0.00  0.00 -0.4115 O
ATOM   1063  O LYS A 1      16.198  14.502   5.577  0.00  0.00 -0.4115 O
ATOM   1064  O LYS A 1      17.345  46.346  -7.080  0.00  0.00 -0.4115 O
ATOM   1065  O LYS A 1      14.992  31.300  -4.242  0.00  0.00 -0.4115 O
ATOM   1066  O LYS A 1      28.196  44.775  -3.148  0.00  0.00 -0.4115 O
ATOM   1067  O LYS A 1      29.479  13.863  -9.107  0.00  0.00 -0.4115 O
ATOM   1068  O LYS A 1      23.613  44.811   2.608  0.00  0.00 -0.4115 O
ATOM   1069  O LYS A 1      40.572  22.184  -6.358  0.00  0.00 -0.4115 O
ATOM   1070  O LYS A 1      12.475  31.860  -6.226  0.00  0.00 -0.4115 O
ATOM   1071  O LYS A 1      16.684  13.594  -5.832  0.00  0.00 -0.4115 O
ATOM   1072  O LYS A 1      27.534  38.059 -12.862  0.00  0.00 -0.4115 O
ATOM   1073  O LYS A 1      25.892  35.973  11.563  0.00  0.00 -0.4115 O
ATOM   1074  O LYS A 1      24.790  25.182  16.063  0.00  0.00 -0.4115 O
ATOM   1075  O LYS A 1      12.580  21.214   5.006  0.00  0.00 -0.4115 O
ATOM   1076  O LYS A 1      19.687  23.750  -4.851  0.00  0.00 -0.4115 O
ATOM   1077  O LYS A 1      27.098  35.956 -12.358  0.00  0.00 -0.4115 O
ATOM   1078  O LYS A 1      37.255   9.634  10.002  0.00  0.00 -0.4115 O
ATOM   1079  O LYS A 1      43.755  23.843   8.038  0.00  0.00 -0.4115 O
ATOM   1080  H LYS A 1      35.104  22.971 -11.207  0.00  0.00  0.1191 H
ATOM   1081  H LYS A 1      36.089  22.791 -12.559  0.00  0.00  0.1191 H
ATOM   1082  H LYS A 1      36.390  20.480 -12.209  0.00  0.00  0.0566 H
ATOM   1083  H LYS A 1      37.704  22.003 -10.748  0.00  0.00  0.0288 H
ATOM   1084  H LYS A 1      36.298  22.012  -9.566  0.00  0.00  0.0288 H
ATOM   1085  H LYS A 1      36.696  19.851  -8.872  0.00  0.00  0.0268 H
ATOM   1086  H LYS A 1      37.741  19.483 -10.301  0.00  0.00  0.0268 H
ATOM   1087  H LYS A 1      39.522  20.846  -9.465  0.00  0.00  0.0279 H
ATOM   1088  H LYS A 1      38.483  21.561  -8.195  0.00  0.00  0.0279 H
ATOM   1089  H LYS A 1      38.334  19.458  -7.009  0.00  0.00  0.0425 H
ATOM   1090  H LYS A 1      39.039  18.550  -8.378  0.00  0.00  0.0425 H
ATOM   1091  H LYS A 1      40.393  19.765  -6.269  0.00  0.00  0.1184 H
ATOM   1092  H LYS A 1      41.068  19.039  -7.628  0.00  0.00  0.1184 H
ATOM   1093  H LYS A 1      35.381  18.591 -11.757  0.00  0.00  0.1639 H
ATOM   1094  H LYS A 1      33.078  18.526  -9.832  0.00  0.00  0.0635 H
ATOM   1095  H LYS A 1      33.930  16.467 -11.745  0.00  0.00  0.0323 H
ATOM   1096  H LYS A 1      32.408  16.252  -9.358  0.00  0.00  0.0234 H
ATOM   1097  H LYS A 1      31.196  16.272 -10.684  0.00  0.00  0.0234 H
ATOM   1098  H LYS A 1      32.508  15.044 -10.684  0.00  0.00  0.0234 H
ATOM   1099  H LYS A 1      31.525  18.332 -11.803  0.00  0.00  0.0234 H
ATOM   1100  H LYS A 1      32.934  18.352 -12.917  0.00  0.00  0.0234 H
ATOM   1101  H LYS A 1      31.809  16.952 -12.917  0.00  0.00  0.0234 H
ATOM   1102  H LYS A 1      33.730  18.209  -7.832  0.00  0.00  0.1639 H
ATOM   1103  H LYS A 1      36.259  16.947  -7.154  0.00  0.00  0.0636 H
ATOM   1104  H LYS A 1      33.951  18.055  -5.589  0.00  0.00  0.0343 H
ATOM   1105  H LYS A 1      35.109  16.900  -4.786  0.00  0.00  0.0343 H
ATOM   1106  H LYS A 1      34.720  20.267  -6.315  0.00  0.00  0.0626 H
ATOM   1107  H LYS A 1      37.143  17.572  -4.004  0.00  0.00  0.0626 H
ATOM   1108  H LYS A 1      36.469  22.039  -6.088  0.00  0.00  0.0623 H
ATOM   1109  H LYS A 1      38.738  19.401  -3.509  0.00  0.00  0.0623 H
ATOM   1110  H LYS A 1      38.276  21.715  -4.363  0.00  0.00  0.0623 H
ATOM   1111  H LYS A 1      36.702  14.962  -6.315  0.00  0.00  0.1636 H
ATOM   1112  H LYS A 1      34.545  12.876  -6.480  0.00  0.00  0.0595 H
ATOM   1113  H LYS A 1      36.218  12.590  -5.963  0.00  0.00  0.0595 H
ATOM   1114  H LYS A 1      33.700  11.821  -4.623  0.00  0.00  0.1639 H
ATOM   1115  H LYS A 1      32.907  13.412  -2.469  0.00  0.00  0.0632 H
ATOM   1116  H LYS A 1      31.926  11.222  -3.041  0.00  0.00  0.0294 H
ATOM   1117  H LYS A 1      33.444  10.407  -2.463  0.00  0.00  0.0294 H
ATOM   1118  H LYS A 1      33.051  11.177  -0.208  0.00  0.00  0.0285 H
ATOM   1119  H LYS A 1      31.589  12.093  -0.753  0.00  0.00  0.0285 H
ATOM   1120  H LYS A 1      31.010  10.003   0.316  0.00  0.00  0.0491 H
ATOM   1121  H LYS A 1      30.564  10.059  -1.462  0.00  0.00  0.0491 H
ATOM   1122  H LYS A 1      32.014   8.387  -1.921  0.00  0.00  0.1631 H
ATOM   1123  H LYS A 1      33.372   7.729   1.827  0.00  0.00  0.1592 H
ATOM   1124  H LYS A 1      32.380   9.184   1.543  0.00  0.00  0.1592 H
ATOM   1125  H LYS A 1      33.776   6.238   0.123  0.00  0.00  0.1910 H
ATOM   1126  H LYS A 1      35.670  11.139  -2.355  0.00  0.00  0.1639 H
ATOM   1127  H LYS A 1      36.309  12.040   0.325  0.00  0.00  0.0641 H
ATOM   1128  H LYS A 1      37.723  10.240  -1.656  0.00  0.00  0.0416 H
ATOM   1129  H LYS A 1      38.391  10.669  -0.003  0.00  0.00  0.0416 H
ATOM   1130  H LYS A 1      37.381  12.985  -2.784  0.00  0.00  0.1639 H
ATOM   1131  H LYS A 1      39.696  14.572  -1.894  0.00  0.00  0.0632 H
ATOM   1132  H LYS A 1      39.278  13.944  -4.208  0.00  0.00  0.0299 H
ATOM   1133  H LYS A 1      37.745  15.009  -4.139  0.00  0.00  0.0299 H
ATOM   1134  H LYS A 1      39.081  16.953  -3.947  0.00  0.00  0.0386 H
ATOM   1135  H LYS A 1      40.589  15.864  -4.105  0.00  0.00  0.0386 H
ATOM   1136  H LYS A 1      40.431  17.073  -7.364  0.00  0.00  0.2963 H
ATOM   1137  H LYS A 1      36.247  15.331  -2.367  0.00  0.00  0.1639 H
ATOM   1138  H LYS A 1      36.397  18.118  -1.573  0.00  0.00  0.0632 H
ATOM   1139  H LYS A 1      34.576  17.221  -2.909  0.00  0.00  0.0296 H
ATOM   1140  H LYS A 1      34.028  16.254  -1.468  0.00  0.00  0.0296 H
ATOM   1141  H LYS A 1      33.791  18.431  -0.210  0.00  0.00  0.0298 H
ATOM   1142  H LYS A 1      34.585  20.303  -0.999  0.00  0.00  0.0233 H
ATOM   1143  H LYS A 1      35.183  19.438  -2.455  0.00  0.00  0.0233 H
ATOM   1144  H LYS A 1      33.542  20.168  -2.455  0.00  0.00  0.0233 H
ATOM   1145  H LYS A 1      31.693  18.064  -0.649  0.00  0.00  0.0233 H
ATOM   1146  H LYS A 1      31.861  18.995  -2.175  0.00  0.00  0.0233 H
ATOM   1147  H LYS A 1      32.116  17.217  -2.175  0.00  0.00  0.0233 H
ATOM   1148  H LYS A 1      35.450  15.201   0.226  0.00  0.00  0.1639 H
ATOM   1149  H LYS A 1      35.015  16.303   2.767  0.00  0.00  0.0629 H
ATOM   1150  H LYS A 1      35.641  14.162   3.716  0.00  0.00  0.0257 H
ATOM   1151  H LYS A 1      34.707  13.928   2.199  0.00  0.00  0.0257 H
ATOM   1152  H LYS A 1      36.489  13.707   2.199  0.00  0.00  0.0257 H
ATOM   1153  H LYS A 1      38.199  15.377   1.374  0.00  0.00  0.1639 H
ATOM   1154  H LYS A 1      39.739  16.178   3.679  0.00  0.00  0.0629 H
ATOM   1155  H LYS A 1      41.411  15.242   2.550  0.00  0.00  0.0257 H
ATOM   1156  H LYS A 1      40.257  14.927   1.209  0.00  0.00  0.0257 H
ATOM   1157  H LYS A 1      41.247  16.426   1.209  0.00  0.00  0.0257 H
ATOM   1158  H LYS A 1      38.799  17.937   0.651  0.00  0.00  0.1639 H
ATOM   1159  H LYS A 1      40.314  20.289   1.343  0.00  0.00  0.0629 H
ATOM   1160  H LYS A 1      38.135  21.237  -0.109  0.00  0.00  0.0257 H
ATOM   1161  H LYS A 1      39.761  20.773  -0.715  0.00  0.00  0.0257 H
ATOM   1162  H LYS A 1      38.425  19.571  -0.715  0.00  0.00  0.0257 H
ATOM   1163  H LYS A 1      36.961  19.396   2.056  0.00  0.00  0.1639 H
ATOM   1164  H LYS A 1      36.303  21.856   3.398  0.00  0.00  0.0632 H
ATOM   1165  H LYS A 1      35.045  19.115   3.479  0.00  0.00  0.0301 H
ATOM   1166  H LYS A 1      34.412  20.528   4.395  0.00  0.00  0.0301 H
ATOM   1167  H LYS A 1      34.253  21.822   2.292  0.00  0.00  0.0381 H
ATOM   1168  H LYS A 1      34.890  20.446   1.366  0.00  0.00  0.0381 H
ATOM   1169  H LYS A 1      31.241  21.878   1.737  0.00  0.00  0.0344 H
ATOM   1170  H LYS A 1      32.526  21.647   0.503  0.00  0.00  0.0344 H
ATOM   1171  H LYS A 1      31.080  20.582   0.503  0.00  0.00  0.0344 H
ATOM   1172  H LYS A 1      37.743  18.889   4.599  0.00  0.00  0.1639 H
ATOM   1173  H LYS A 1      37.725  19.456   7.455  0.00  0.00  0.0632 H
ATOM   1174  H LYS A 1      38.080  17.263   6.491  0.00  0.00  0.0293 H
ATOM   1175  H LYS A 1      39.629  17.897   5.721  0.00  0.00  0.0293 H
ATOM   1176  H LYS A 1      40.589  16.937   7.465  0.00  0.00  0.0268 H
ATOM   1177  H LYS A 1      40.054  18.493   8.282  0.00  0.00  0.0268 H
ATOM   1178  H LYS A 1      39.241  17.148   9.834  0.00  0.00  0.0279 H
ATOM   1179  H LYS A 1      37.897  16.913   8.648  0.00  0.00  0.0279 H
ATOM   1180  H LYS A 1      39.721  15.089   7.761  0.00  0.00  0.0425 H
ATOM   1181  H LYS A 1      40.008  15.065   9.552  0.00  0.00  0.0425 H
ATOM   1182  H LYS A 1      37.902  14.339   9.954  0.00  0.00  0.1184 H
ATOM   1183  H LYS A 1      37.266  14.922   8.509  0.00  0.00  0.1184 H
ATOM   1184  H LYS A 1      40.102  20.073   4.837  0.00  0.00  0.1639 H
ATOM   1185  H LYS A 1      41.962  21.362   6.626  0.00  0.00  0.0632 H
ATOM   1186  H LYS A 1      43.375  21.651   4.983  0.00  0.00  0.0294 H
ATOM   1187  H LYS A 1      42.278  20.287   4.345  0.00  0.00  0.0294 H
ATOM   1188  H LYS A 1      41.381  21.574   2.717  0.00  0.00  0.0285 H
ATOM   1189  H LYS A 1      41.877  23.118   3.495  0.00  0.00  0.0285 H
ATOM   1190  H LYS A 1      43.346  22.757   1.632  0.00  0.00  0.0491 H
ATOM   1191  H LYS A 1      44.284  22.411   3.115  0.00  0.00  0.0491 H
ATOM   1192  H LYS A 1      44.318  20.091   2.542  0.00  0.00  0.1631 H
ATOM   1193  H LYS A 1      42.236  20.904  -0.860  0.00  0.00  0.1592 H
ATOM   1194  H LYS A 1      42.844  22.184   0.224  0.00  0.00  0.1592 H
ATOM   1195  H LYS A 1      42.496  18.619  -0.172  0.00  0.00  0.1910 H
ATOM   1196  H LYS A 1      39.127  22.465   5.086  0.00  0.00  0.1639 H
ATOM   1197  H LYS A 1      39.931  25.282   5.529  0.00  0.00  0.0636 H
ATOM   1198  H LYS A 1      37.683  24.014   3.968  0.00  0.00  0.0360 H
ATOM   1199  H LYS A 1      37.510  25.715   4.543  0.00  0.00  0.0360 H
ATOM   1200  H LYS A 1      39.651  27.471   3.618  0.00  0.00  0.0836 H
ATOM   1201  H LYS A 1      40.517  25.014   0.244  0.00  0.00  0.1041 H
ATOM   1202  H LYS A 1      41.257  27.079   1.593  0.00  0.00  0.1669 H
ATOM   1203  H LYS A 1      38.705  23.020   7.452  0.00  0.00  0.1636 H
ATOM   1204  H LYS A 1      38.278  23.275   9.692  0.00  0.00  0.0595 H
ATOM   1205  H LYS A 1      37.943  25.063   9.390  0.00  0.00  0.0595 H
ATOM   1206  H LYS A 1      36.232  22.693   7.503  0.00  0.00  0.1639 H
ATOM   1207  H LYS A 1      33.762  23.692   8.721  0.00  0.00  0.0632 H
ATOM   1208  H LYS A 1      34.314  21.977   6.338  0.00  0.00  0.0296 H
ATOM   1209  H LYS A 1      32.626  22.281   7.080  0.00  0.00  0.0296 H
ATOM   1210  H LYS A 1      34.416  24.410   5.969  0.00  0.00  0.0298 H
ATOM   1211  H LYS A 1      32.125  22.689   4.854  0.00  0.00  0.0233 H
ATOM   1212  H LYS A 1      32.547  24.282   4.141  0.00  0.00  0.0233 H
ATOM   1213  H LYS A 1      33.753  22.951   4.141  0.00  0.00  0.0233 H
ATOM   1214  H LYS A 1      32.613  24.879   7.775  0.00  0.00  0.0233 H
ATOM   1215  H LYS A 1      32.888  25.943   6.355  0.00  0.00  0.0233 H
ATOM   1216  H LYS A 1      31.518  24.783   6.355  0.00  0.00  0.0233 H
ATOM   1217  H LYS A 1      35.733  20.911   9.214  0.00  0.00  0.1639 H
ATOM   1218  H LYS A 1      33.635  19.199  10.076  0.00  0.00  0.0638 H
ATOM   1219  H LYS A 1      35.859  18.354   9.578  0.00  0.00  0.0412 H
ATOM   1220  H LYS A 1      36.422  19.018  11.158  0.00  0.00  0.0412 H
ATOM   1221  H LYS A 1      35.689  15.767  12.136  0.00  0.00  0.2963 H
ATOM   1222  H LYS A 1      32.169  19.471  11.528  0.00  0.00  0.1639 H
ATOM   1223  H LYS A 1      31.181  19.867  13.388  0.00  0.00  0.0638 H
ATOM   1224  H LYS A 1      32.737  18.905  14.806  0.00  0.00  0.0394 H
ATOM   1225  H LYS A 1      33.768  20.459  14.743  0.00  0.00  0.0394 H
ATOM   1226  H LYS A 1      32.428  21.701  17.729  0.00  0.00  0.1591 H
ATOM   1227  H LYS A 1      33.790  21.671  16.578  0.00  0.00  0.1591 H
ATOM   1228  H LYS A 1      32.247  22.188  11.528  0.00  0.00  0.1639 H
ATOM   1229  H LYS A 1      32.342  24.575  13.173  0.00  0.00  0.0636 H
ATOM   1230  H LYS A 1      33.075  24.400  10.772  0.00  0.00  0.0343 H
ATOM   1231  H LYS A 1      31.319  24.426  10.325  0.00  0.00  0.0343 H
ATOM   1232  H LYS A 1      33.942  26.287  12.219  0.00  0.00  0.0627 H
ATOM   1233  H LYS A 1      30.097  26.503  10.266  0.00  0.00  0.0627 H
ATOM   1234  H LYS A 1      34.118  28.784  12.141  0.00  0.00  0.0662 H
ATOM   1235  H LYS A 1      30.194  29.002  10.371  0.00  0.00  0.0662 H
ATOM   1236  H LYS A 1      32.914  30.804  11.958  0.00  0.00  0.2931 H
ATOM   1237  H LYS A 1      30.934  25.492  14.275  0.00  0.00  0.1639 H
ATOM   1238  H LYS A 1      28.952  26.122  15.243  0.00  0.00  0.0632 H
ATOM   1239  H LYS A 1      28.091  26.240  12.405  0.00  0.00  0.0294 H
ATOM   1240  H LYS A 1      26.984  26.579  13.839  0.00  0.00  0.0294 H
ATOM   1241  H LYS A 1      29.606  27.976  13.491  0.00  0.00  0.0285 H
ATOM   1242  H LYS A 1      28.033  28.522  12.694  0.00  0.00  0.0285 H
ATOM   1243  H LYS A 1      27.405  29.557  14.502  0.00  0.00  0.0491 H
ATOM   1244  H LYS A 1      27.615  28.094  15.491  0.00  0.00  0.0491 H
ATOM   1245  H LYS A 1      29.544  28.901  16.237  0.00  0.00  0.1631 H
ATOM   1246  H LYS A 1      32.216  30.547  14.578  0.00  0.00  0.1592 H
ATOM   1247  H LYS A 1      31.769  28.876  15.013  0.00  0.00  0.1592 H
ATOM   1248  H LYS A 1      30.703  32.083  14.253  0.00  0.00  0.1910 H
ATOM   1249  H LYS A 1      29.714  23.305  14.914  0.00  0.00  0.1636 H
ATOM   1250  H LYS A 1      28.825  21.553  16.205  0.00  0.00  0.0595 H
ATOM   1251  H LYS A 1      27.167  22.297  16.027  0.00  0.00  0.0595 H
ATOM   1252  H LYS A 1      28.805  22.050  13.037  0.00  0.00  0.1639 H
ATOM   1253  H LYS A 1      27.134  19.614  12.496  0.00  0.00  0.0636 H
ATOM   1254  H LYS A 1      28.072  21.904  10.678  0.00  0.00  0.0343 H
ATOM   1255  H LYS A 1      27.224  20.381  10.097  0.00  0.00  0.0343 H
ATOM   1256  H LYS A 1      24.920  19.886  10.921  0.00  0.00  0.0627 H
ATOM   1257  H LYS A 1      26.805  23.715  11.509  0.00  0.00  0.0627 H
ATOM   1258  H LYS A 1      22.696  20.891  11.425  0.00  0.00  0.0662 H
ATOM   1259  H LYS A 1      24.568  24.746  11.954  0.00  0.00  0.0662 H
ATOM   1260  H LYS A 1      22.211  24.405  12.111  0.00  0.00  0.2931 H
ATOM   1261  H LYS A 1      28.178  17.820  12.227  0.00  0.00  0.1640 H
ATOM   1262  H LYS A 1      31.059  17.729  11.888  0.00  0.00  0.0657 H
ATOM   1263  H LYS A 1      30.812  15.333  11.672  0.00  0.00  0.0591 H
ATOM   1264  H LYS A 1      29.746  15.977  12.992  0.00  0.00  0.0591 H
ATOM   1265  H LYS A 1      28.185  15.009  12.012  0.00  0.00  0.2102 H
ATOM   1266  H LYS A 1      32.252  16.705  10.262  0.00  0.00  0.1639 H
ATOM   1267  H LYS A 1      32.104  18.137   7.801  0.00  0.00  0.0632 H
ATOM   1268  H LYS A 1      34.086  16.912   8.791  0.00  0.00  0.0296 H
ATOM   1269  H LYS A 1      33.279  15.350   8.351  0.00  0.00  0.0296 H
ATOM   1270  H LYS A 1      33.372  15.969   5.955  0.00  0.00  0.0298 H
ATOM   1271  H LYS A 1      34.242  18.553   7.192  0.00  0.00  0.0233 H
ATOM   1272  H LYS A 1      35.090  18.047   5.692  0.00  0.00  0.0233 H
ATOM   1273  H LYS A 1      33.305  18.242   5.692  0.00  0.00  0.0233 H
ATOM   1274  H LYS A 1      35.690  15.669   7.803  0.00  0.00  0.0233 H
ATOM   1275  H LYS A 1      35.357  14.833   6.249  0.00  0.00  0.0233 H
ATOM   1276  H LYS A 1      36.137  16.451   6.249  0.00  0.00  0.0233 H
ATOM   1277  H LYS A 1      30.781  14.884   8.485  0.00  0.00  0.1636 H
ATOM   1278  H LYS A 1      30.067  14.183   5.868  0.00  0.00  0.0595 H
ATOM   1279  H LYS A 1      29.127  13.769   7.399  0.00  0.00  0.0595 H
ATOM   1280  H LYS A 1      28.345  16.314   8.092  0.00  0.00  0.1639 H
ATOM   1281  H LYS A 1      25.909  16.655   6.657  0.00  0.00  0.0638 H
ATOM   1282  H LYS A 1      27.407  18.490   8.529  0.00  0.00  0.0394 H
ATOM   1283  H LYS A 1      25.901  19.002   7.732  0.00  0.00  0.0394 H
ATOM   1284  H LYS A 1      25.924  16.490  10.921  0.00  0.00  0.1591 H
ATOM   1285  H LYS A 1      27.292  17.446  10.290  0.00  0.00  0.1591 H
ATOM   1286  H LYS A 1      28.974  18.411   6.378  0.00  0.00  0.1639 H
ATOM   1287  H LYS A 1      28.116  20.277   4.278  0.00  0.00  0.0636 H
ATOM   1288  H LYS A 1      30.838  19.356   5.243  0.00  0.00  0.0343 H
ATOM   1289  H LYS A 1      30.422  20.836   4.228  0.00  0.00  0.0343 H
ATOM   1290  H LYS A 1      30.516  19.633   7.881  0.00  0.00  0.0819 H
ATOM   1291  H LYS A 1      30.144  21.736   9.370  0.00  0.00  0.1659 H
ATOM   1292  H LYS A 1      28.951  22.891   4.232  0.00  0.00  0.0630 H
ATOM   1293  H LYS A 1      28.956  24.271   9.087  0.00  0.00  0.0645 H
ATOM   1294  H LYS A 1      27.982  25.093   4.933  0.00  0.00  0.0623 H
ATOM   1295  H LYS A 1      28.054  25.761   7.302  0.00  0.00  0.0623 H
ATOM   1296  H LYS A 1      29.942  17.213   4.164  0.00  0.00  0.1639 H
ATOM   1297  H LYS A 1      30.234  17.297   1.265  0.00  0.00  0.0635 H
ATOM   1298  H LYS A 1      30.222  14.878   3.166  0.00  0.00  0.0323 H
ATOM   1299  H LYS A 1      30.936  13.556   1.459  0.00  0.00  0.0234 H
ATOM   1300  H LYS A 1      29.864  14.660   0.533  0.00  0.00  0.0234 H
ATOM   1301  H LYS A 1      31.641  14.924   0.533  0.00  0.00  0.0234 H
ATOM   1302  H LYS A 1      32.077  16.078   3.870  0.00  0.00  0.0234 H
ATOM   1303  H LYS A 1      32.807  15.406   2.372  0.00  0.00  0.0234 H
ATOM   1304  H LYS A 1      32.126  17.068   2.372  0.00  0.00  0.0234 H
ATOM   1305  H LYS A 1      27.812  15.796   3.275  0.00  0.00  0.1639 H
ATOM   1306  H LYS A 1      26.166  14.730   1.279  0.00  0.00  0.0641 H
ATOM   1307  H LYS A 1      25.928  14.248   3.652  0.00  0.00  0.0416 H
ATOM   1308  H LYS A 1      25.171  15.887   3.859  0.00  0.00  0.0416 H
ATOM   1309  H LYS A 1      26.077  17.983   2.742  0.00  0.00  0.1639 H
ATOM   1310  H LYS A 1      23.859  18.997   1.243  0.00  0.00  0.0629 H
ATOM   1311  H LYS A 1      25.111  20.024   3.254  0.00  0.00  0.0257 H
ATOM   1312  H LYS A 1      26.158  20.768   1.998  0.00  0.00  0.0257 H
ATOM   1313  H LYS A 1      24.390  21.087   1.998  0.00  0.00  0.0257 H
ATOM   1314  H LYS A 1      27.403  19.217   0.543  0.00  0.00  0.1639 H
ATOM   1315  H LYS A 1      27.209  20.531  -1.975  0.00  0.00  0.0629 H
ATOM   1316  H LYS A 1      29.223  19.466  -0.325  0.00  0.00  0.0257 H
ATOM   1317  H LYS A 1      29.372  18.562  -1.870  0.00  0.00  0.0257 H
ATOM   1318  H LYS A 1      29.442  20.357  -1.870  0.00  0.00  0.0257 H
ATOM   1319  H LYS A 1      26.910  17.099  -1.199  0.00  0.00  0.1639 H
ATOM   1320  H LYS A 1      27.012  16.118  -3.834  0.00  0.00  0.0632 H
ATOM   1321  H LYS A 1      27.246  14.613  -2.037  0.00  0.00  0.0293 H
ATOM   1322  H LYS A 1      25.507  14.972  -1.522  0.00  0.00  0.0293 H
ATOM   1323  H LYS A 1      25.704  12.794  -2.556  0.00  0.00  0.0268 H
ATOM   1324  H LYS A 1      24.690  13.985  -3.520  0.00  0.00  0.0268 H
ATOM   1325  H LYS A 1      26.699  14.337  -4.985  0.00  0.00  0.0279 H
ATOM   1326  H LYS A 1      27.455  12.928  -4.180  0.00  0.00  0.0279 H
ATOM   1327  H LYS A 1      25.386  11.592  -4.731  0.00  0.00  0.0425 H
ATOM   1328  H LYS A 1      24.823  13.039  -5.699  0.00  0.00  0.0425 H
ATOM   1329  H LYS A 1      27.246  11.438  -6.224  0.00  0.00  0.1184 H
ATOM   1330  H LYS A 1      25.805  11.379  -7.090  0.00  0.00  0.1184 H
ATOM   1331  H LYS A 1      24.226  17.132  -1.836  0.00  0.00  0.1639 H
ATOM   1332  H LYS A 1      22.321  16.466  -4.092  0.00  0.00  0.0636 H
ATOM   1333  H LYS A 1      21.941  17.140  -1.185  0.00  0.00  0.0343 H
ATOM   1334  H LYS A 1      20.604  16.979  -2.396  0.00  0.00  0.0343 H
ATOM   1335  H LYS A 1      20.741  14.794  -3.899  0.00  0.00  0.0626 H
ATOM   1336  H LYS A 1      22.636  15.288  -0.050  0.00  0.00  0.0626 H
ATOM   1337  H LYS A 1      21.072  12.309  -3.743  0.00  0.00  0.0623 H
ATOM   1338  H LYS A 1      22.982  12.819   0.116  0.00  0.00  0.0623 H
ATOM   1339  H LYS A 1      21.945  11.314  -1.602  0.00  0.00  0.0623 H
ATOM   1340  H LYS A 1      23.991  19.160  -2.782  0.00  0.00  0.1639 H
ATOM   1341  H LYS A 1      22.088  20.935  -4.019  0.00  0.00  0.0632 H
ATOM   1342  H LYS A 1      24.735  21.630  -2.850  0.00  0.00  0.0299 H
ATOM   1343  H LYS A 1      23.540  22.798  -3.710  0.00  0.00  0.0299 H
ATOM   1344  H LYS A 1      22.889  21.267  -1.256  0.00  0.00  0.0386 H
ATOM   1345  H LYS A 1      23.628  22.981  -1.344  0.00  0.00  0.0386 H
ATOM   1346  H LYS A 1      20.055  23.453  -0.960  0.00  0.00  0.2963 H
ATOM   1347  H LYS A 1      25.326  19.968  -4.909  0.00  0.00  0.1640 H
ATOM   1348  H LYS A 1      24.888  21.021  -7.610  0.00  0.00  0.0657 H
ATOM   1349  H LYS A 1      27.342  21.711  -7.610  0.00  0.00  0.0591 H
ATOM   1350  H LYS A 1      26.462  22.468  -6.216  0.00  0.00  0.0591 H
ATOM   1351  H LYS A 1      27.454  21.135  -4.820  0.00  0.00  0.2102 H
ATOM   1352  H LYS A 1      25.313  18.216  -6.123  0.00  0.00  0.1639 H
ATOM   1353  H LYS A 1      26.446  16.198  -6.533  0.00  0.00  0.0638 H
ATOM   1354  H LYS A 1      24.963  16.762  -8.643  0.00  0.00  0.0394 H
ATOM   1355  H LYS A 1      26.579  16.972  -9.438  0.00  0.00  0.0394 H
ATOM   1356  H LYS A 1      25.931  13.495 -10.175  0.00  0.00  0.1591 H
ATOM   1357  H LYS A 1      25.579  15.150 -10.740  0.00  0.00  0.1591 H
ATOM   1358  H LYS A 1      28.068  18.353  -5.712  0.00  0.00  0.1639 H
ATOM   1359  H LYS A 1      30.241  18.750  -5.388  0.00  0.00  0.0636 H
ATOM   1360  H LYS A 1      30.808  16.197  -6.945  0.00  0.00  0.0343 H
ATOM   1361  H LYS A 1      31.949  17.134  -5.839  0.00  0.00  0.0343 H
ATOM   1362  H LYS A 1      30.059  17.668  -3.571  0.00  0.00  0.0626 H
ATOM   1363  H LYS A 1      30.808  14.133  -5.941  0.00  0.00  0.0626 H
ATOM   1364  H LYS A 1      29.448  16.290  -1.622  0.00  0.00  0.0623 H
ATOM   1365  H LYS A 1      30.079  12.721  -3.999  0.00  0.00  0.0623 H
ATOM   1366  H LYS A 1      29.657  13.786  -1.758  0.00  0.00  0.0623 H
ATOM   1367  H LYS A 1      28.993  19.943  -7.648  0.00  0.00  0.1639 H
ATOM   1368  H LYS A 1      31.330  20.253  -9.560  0.00  0.00  0.0638 H
ATOM   1369  H LYS A 1      29.251  19.213 -10.425  0.00  0.00  0.0394 H
ATOM   1370  H LYS A 1      28.493  20.876 -10.154  0.00  0.00  0.0394 H
ATOM   1371  H LYS A 1      29.834  20.036 -13.636  0.00  0.00  0.1591 H
ATOM   1372  H LYS A 1      29.093  18.994 -12.392  0.00  0.00  0.1591 H
ATOM   1373  H LYS A 1      32.506  21.837  -9.220  0.00  0.00  0.1640 H
ATOM   1374  H LYS A 1      31.681  24.064  -7.676  0.00  0.00  0.0660 H
ATOM   1375  H LYS A 1      33.816  25.034  -7.851  0.00  0.00  0.0625 H
ATOM   1376  H LYS A 1      35.254  24.245  -9.705  0.00  0.00  0.2106 H
ATOM   1377  H LYS A 1      34.214  23.388  -6.443  0.00  0.00  0.0258 H
ATOM   1378  H LYS A 1      34.054  22.097  -7.682  0.00  0.00  0.0258 H
ATOM   1379  H LYS A 1      35.496  23.168  -7.682  0.00  0.00  0.0258 H
ATOM   1380  H LYS A 1      30.933  23.409 -10.823  0.00  0.00  0.1639 H
ATOM   1381  H LYS A 1      30.924  26.292 -11.595  0.00  0.00  0.0632 H
ATOM   1382  H LYS A 1      30.809  23.750 -13.290  0.00  0.00  0.0298 H
ATOM   1383  H LYS A 1      30.565  25.417 -13.954  0.00  0.00  0.0298 H
ATOM   1384  H LYS A 1      32.989  25.149 -12.281  0.00  0.00  0.0368 H
ATOM   1385  H LYS A 1      33.029  24.122 -13.727  0.00  0.00  0.0368 H
ATOM   1386  H LYS A 1      33.475  28.135 -13.871  0.00  0.00  0.1591 H
ATOM   1387  H LYS A 1      33.475  27.100 -12.418  0.00  0.00  0.1591 H
ATOM   1388  H LYS A 1      28.841  24.100 -10.300  0.00  0.00  0.1639 H
ATOM   1389  H LYS A 1      26.550  24.235 -12.059  0.00  0.00  0.0629 H
ATOM   1390  H LYS A 1      26.565  24.011  -8.998  0.00  0.00  0.0257 H
ATOM   1391  H LYS A 1      25.271  23.462 -10.115  0.00  0.00  0.0257 H
ATOM   1392  H LYS A 1      26.866  22.637 -10.115  0.00  0.00  0.0257 H
ATOM   1393  H LYS A 1      25.092  25.675 -12.446  0.00  0.00  0.1640 H
ATOM   1394  H LYS A 1      24.627  27.828 -10.446  0.00  0.00  0.0660 H
ATOM   1395  H LYS A 1      24.203  29.596 -12.087  0.00  0.00  0.0625 H
ATOM   1396  H LYS A 1      24.023  27.486 -13.760  0.00  0.00  0.2106 H
ATOM   1397  H LYS A 1      26.469  29.288 -11.109  0.00  0.00  0.0258 H
ATOM   1398  H LYS A 1      26.941  28.500 -12.653  0.00  0.00  0.0258 H
ATOM   1399  H LYS A 1      26.365  30.201 -12.653  0.00  0.00  0.0258 H
ATOM   1400  H LYS A 1      22.415  28.426 -10.274  0.00  0.00  0.1639 H
ATOM   1401  H LYS A 1      20.427  27.069 -12.098  0.00  0.00  0.0638 H
ATOM   1402  H LYS A 1      20.624  25.508 -10.293  0.00  0.00  0.0394 H
ATOM   1403  H LYS A 1      20.435  26.845  -9.081  0.00  0.00  0.0394 H
ATOM   1404  H LYS A 1      16.881  26.825  -9.198  0.00  0.00  0.1591 H
ATOM   1405  H LYS A 1      18.360  27.501  -8.463  0.00  0.00  0.1591 H
ATOM   1406  H LYS A 1      18.917  28.411 -12.661  0.00  0.00  0.1639 H
ATOM   1407  H LYS A 1      18.859  31.163 -11.504  0.00  0.00  0.0632 H
ATOM   1408  H LYS A 1      19.082  31.299 -13.800  0.00  0.00  0.0294 H
ATOM   1409  H LYS A 1      17.902  29.972 -14.099  0.00  0.00  0.0294 H
ATOM   1410  H LYS A 1      16.752  32.035 -14.611  0.00  0.00  0.0285 H
ATOM   1411  H LYS A 1      16.114  31.493 -13.038  0.00  0.00  0.0285 H
ATOM   1412  H LYS A 1      16.658  33.782 -12.650  0.00  0.00  0.0491 H
ATOM   1413  H LYS A 1      18.071  32.959 -12.005  0.00  0.00  0.0491 H
ATOM   1414  H LYS A 1      19.339  33.802 -13.930  0.00  0.00  0.1631 H
ATOM   1415  H LYS A 1      15.838  34.740 -15.930  0.00  0.00  0.1592 H
ATOM   1416  H LYS A 1      15.709  33.968 -14.326  0.00  0.00  0.1592 H
ATOM   1417  H LYS A 1      17.932  35.105 -16.866  0.00  0.00  0.1910 H
ATOM   1418  H LYS A 1      17.121  32.028 -10.497  0.00  0.00  0.1639 H
ATOM   1419  H LYS A 1      14.877  30.066  -9.914  0.00  0.00  0.0638 H
ATOM   1420  H LYS A 1      15.982  32.239  -8.134  0.00  0.00  0.0394 H
ATOM   1421  H LYS A 1      14.612  31.042  -7.800  0.00  0.00  0.0394 H
ATOM   1422  H LYS A 1      16.737  28.255  -7.191  0.00  0.00  0.1591 H
ATOM   1423  H LYS A 1      15.190  28.719  -7.948  0.00  0.00  0.1591 H
ATOM   1424  H LYS A 1      12.873  31.028  -9.264  0.00  0.00  0.1640 H
ATOM   1425  H LYS A 1      11.861  32.667 -11.346  0.00  0.00  0.0660 H
ATOM   1426  H LYS A 1       9.645  32.502 -10.283  0.00  0.00  0.0625 H
ATOM   1427  H LYS A 1      10.467  31.310  -7.900  0.00  0.00  0.2106 H
ATOM   1428  H LYS A 1      10.260  29.933  -9.283  0.00  0.00  0.0258 H
ATOM   1429  H LYS A 1       9.414  30.440 -10.784  0.00  0.00  0.0258 H
ATOM   1430  H LYS A 1      11.198  30.235 -10.784  0.00  0.00  0.0258 H
ATOM   1431  H LYS A 1      12.956  33.580  -8.121  0.00  0.00  0.1639 H
ATOM   1432  H LYS A 1      11.975  36.258  -8.465  0.00  0.00  0.0638 H
ATOM   1433  H LYS A 1      12.931  36.774  -6.290  0.00  0.00  0.0412 H
ATOM   1434  H LYS A 1      12.229  35.098  -6.224  0.00  0.00  0.0412 H
ATOM   1435  H LYS A 1      15.615  35.091  -4.685  0.00  0.00  0.2963 H
ATOM   1436  H LYS A 1      14.362  35.095 -10.217  0.00  0.00  0.1636 H
ATOM   1437  H LYS A 1      15.661  36.483 -11.621  0.00  0.00  0.0595 H
ATOM   1438  H LYS A 1      15.633  37.768 -10.299  0.00  0.00  0.0595 H
ATOM   1439  H LYS A 1      16.279  35.450  -8.463  0.00  0.00  0.1640 H
ATOM   1440  H LYS A 1      19.192  36.010  -8.427  0.00  0.00  0.0657 H
ATOM   1441  H LYS A 1      19.266  35.021  -6.314  0.00  0.00  0.0591 H
ATOM   1442  H LYS A 1      17.732  35.970  -6.402  0.00  0.00  0.0591 H
ATOM   1443  H LYS A 1      17.470  33.836  -5.479  0.00  0.00  0.2102 H
ATOM   1444  H LYS A 1      20.808  34.485  -8.227  0.00  0.00  0.1640 H
ATOM   1445  H LYS A 1      20.271  31.796  -9.580  0.00  0.00  0.0660 H
ATOM   1446  H LYS A 1      22.705  33.588 -10.095  0.00  0.00  0.0625 H
ATOM   1447  H LYS A 1      20.421  34.138 -10.955  0.00  0.00  0.2106 H
ATOM   1448  H LYS A 1      23.068  31.108 -10.107  0.00  0.00  0.0258 H
ATOM   1449  H LYS A 1      22.021  31.074 -11.566  0.00  0.00  0.0258 H
ATOM   1450  H LYS A 1      23.529  32.049 -11.566  0.00  0.00  0.0258 H
ATOM   1451  H LYS A 1      21.102  30.124  -8.573  0.00  0.00  0.1639 H
ATOM   1452  H LYS A 1      22.742  30.519  -6.076  0.00  0.00  0.0638 H
ATOM   1453  H LYS A 1      21.644  28.002  -7.436  0.00  0.00  0.0412 H
ATOM   1454  H LYS A 1      22.337  28.134  -5.768  0.00  0.00  0.0412 H
ATOM   1455  H LYS A 1      18.594  28.292  -5.895  0.00  0.00  0.2963 H
ATOM   1456  H LYS A 1      24.807  30.026  -5.924  0.00  0.00  0.1639 H
ATOM   1457  H LYS A 1      26.137  29.216  -8.470  0.00  0.00  0.0636 H
ATOM   1458  H LYS A 1      26.921  31.423  -6.488  0.00  0.00  0.0343 H
ATOM   1459  H LYS A 1      28.027  30.768  -7.805  0.00  0.00  0.0343 H
ATOM   1460  H LYS A 1      27.612  31.301 -10.174  0.00  0.00  0.0627 H
ATOM   1461  H LYS A 1      25.249  32.948  -6.982  0.00  0.00  0.0627 H
ATOM   1462  H LYS A 1      26.589  32.916 -11.776  0.00  0.00  0.0662 H
ATOM   1463  H LYS A 1      24.093  34.462  -8.594  0.00  0.00  0.0662 H
ATOM   1464  H LYS A 1      25.176  34.845 -12.033  0.00  0.00  0.2931 H
ATOM   1465  H LYS A 1      27.408  27.658  -8.462  0.00  0.00  0.1636 H
ATOM   1466  H LYS A 1      29.315  26.480  -8.051  0.00  0.00  0.0595 H
ATOM   1467  H LYS A 1      29.490  27.439  -6.469  0.00  0.00  0.0595 H
ATOM   1468  H LYS A 1      30.457  25.594  -5.697  0.00  0.00  0.1639 H
ATOM   1469  H LYS A 1      29.039  23.063  -5.704  0.00  0.00  0.0635 H
ATOM   1470  H LYS A 1      31.671  23.497  -5.323  0.00  0.00  0.0326 H
ATOM   1471  H LYS A 1      30.321  21.663  -3.333  0.00  0.00  0.0267 H
ATOM   1472  H LYS A 1      30.199  21.424  -5.165  0.00  0.00  0.0267 H
ATOM   1473  H LYS A 1      31.121  23.736  -2.437  0.00  0.00  0.0234 H
ATOM   1474  H LYS A 1      32.490  24.306  -3.449  0.00  0.00  0.0234 H
ATOM   1475  H LYS A 1      30.937  25.208  -3.449  0.00  0.00  0.0234 H
ATOM   1476  H LYS A 1      32.426  20.822  -3.307  0.00  0.00  0.0230 H
ATOM   1477  H LYS A 1      31.945  20.063  -4.862  0.00  0.00  0.0230 H
ATOM   1478  H LYS A 1      32.873  21.601  -4.862  0.00  0.00  0.0230 H
ATOM   1479  H LYS A 1      28.794  25.702  -3.465  0.00  0.00  0.1639 H
ATOM   1480  H LYS A 1      26.716  24.013  -2.025  0.00  0.00  0.0632 H
ATOM   1481  H LYS A 1      28.446  26.305  -1.070  0.00  0.00  0.0296 H
ATOM   1482  H LYS A 1      26.987  25.625  -0.183  0.00  0.00  0.0296 H
ATOM   1483  H LYS A 1      29.475  23.966  -0.875  0.00  0.00  0.0298 H
ATOM   1484  H LYS A 1      28.904  24.563   1.924  0.00  0.00  0.0233 H
ATOM   1485  H LYS A 1      30.416  24.819   0.990  0.00  0.00  0.0233 H
ATOM   1486  H LYS A 1      29.136  26.079   0.990  0.00  0.00  0.0233 H
ATOM   1487  H LYS A 1      27.758  23.110   1.289  0.00  0.00  0.0233 H
ATOM   1488  H LYS A 1      26.796  23.328  -0.213  0.00  0.00  0.0233 H
ATOM   1489  H LYS A 1      28.230  22.245  -0.213  0.00  0.00  0.0233 H
ATOM   1490  H LYS A 1      26.619  25.833  -4.593  0.00  0.00  0.1639 H
ATOM   1491  H LYS A 1      24.880  27.194  -5.464  0.00  0.00  0.0632 H
ATOM   1492  H LYS A 1      23.472  25.202  -3.606  0.00  0.00  0.0298 H
ATOM   1493  H LYS A 1      22.582  26.311  -4.724  0.00  0.00  0.0298 H
ATOM   1494  H LYS A 1      24.718  24.316  -5.575  0.00  0.00  0.0368 H
ATOM   1495  H LYS A 1      22.908  24.063  -5.659  0.00  0.00  0.0368 H
ATOM   1496  H LYS A 1      24.793  26.247  -8.581  0.00  0.00  0.1591 H
ATOM   1497  H LYS A 1      25.712  25.647  -7.175  0.00  0.00  0.1591 H
ATOM   1498  H LYS A 1      26.072  28.806  -3.904  0.00  0.00  0.1639 H
ATOM   1499  H LYS A 1      24.291  29.889  -1.784  0.00  0.00  0.0635 H
ATOM   1500  H LYS A 1      27.061  30.667  -2.929  0.00  0.00  0.0326 H
ATOM   1501  H LYS A 1      26.140  29.926  -0.093  0.00  0.00  0.0267 H
ATOM   1502  H LYS A 1      26.619  28.681  -1.310  0.00  0.00  0.0267 H
ATOM   1503  H LYS A 1      26.173  32.189  -0.594  0.00  0.00  0.0234 H
ATOM   1504  H LYS A 1      27.031  32.708  -2.085  0.00  0.00  0.0234 H
ATOM   1505  H LYS A 1      25.241  32.558  -2.085  0.00  0.00  0.0234 H
ATOM   1506  H LYS A 1      28.372  29.973   0.452  0.00  0.00  0.0230 H
ATOM   1507  H LYS A 1      28.850  29.138  -1.065  0.00  0.00  0.0230 H
ATOM   1508  H LYS A 1      28.576  30.914  -1.065  0.00  0.00  0.0230 H
ATOM   1509  H LYS A 1      23.009  31.471  -1.904  0.00  0.00  0.1639 H
ATOM   1510  H LYS A 1      22.063  32.187  -4.638  0.00  0.00  0.0638 H
ATOM   1511  H LYS A 1      20.597  31.227  -2.834  0.00  0.00  0.0394 H
ATOM   1512  H LYS A 1      20.890  32.758  -1.885  0.00  0.00  0.0394 H
ATOM   1513  H LYS A 1      18.367  32.711  -5.148  0.00  0.00  0.1591 H
ATOM   1514  H LYS A 1      19.556  31.409  -4.876  0.00  0.00  0.1591 H
ATOM   1515  H LYS A 1      21.839  33.885  -5.660  0.00  0.00  0.1640 H
ATOM   1516  H LYS A 1      23.543  36.036  -4.758  0.00  0.00  0.0657 H
ATOM   1517  H LYS A 1      23.020  37.159  -6.918  0.00  0.00  0.0591 H
ATOM   1518  H LYS A 1      23.302  35.351  -7.143  0.00  0.00  0.0591 H
ATOM   1519  H LYS A 1      20.688  35.926  -6.796  0.00  0.00  0.2102 H
ATOM   1520  H LYS A 1      20.190  35.691  -4.234  0.00  0.00  0.1639 H
ATOM   1521  H LYS A 1      19.683  38.527  -4.102  0.00  0.00  0.0632 H
ATOM   1522  H LYS A 1      17.937  36.689  -4.170  0.00  0.00  0.0294 H
ATOM   1523  H LYS A 1      18.243  36.516  -2.385  0.00  0.00  0.0294 H
ATOM   1524  H LYS A 1      17.715  39.001  -2.168  0.00  0.00  0.0285 H
ATOM   1525  H LYS A 1      17.153  39.005  -3.828  0.00  0.00  0.0285 H
ATOM   1526  H LYS A 1      15.638  37.078  -3.336  0.00  0.00  0.0491 H
ATOM   1527  H LYS A 1      16.298  36.977  -1.671  0.00  0.00  0.0491 H
ATOM   1528  H LYS A 1      15.416  39.572  -1.721  0.00  0.00  0.1631 H
ATOM   1529  H LYS A 1      12.446  36.990  -2.845  0.00  0.00  0.1592 H
ATOM   1530  H LYS A 1      14.157  36.679  -3.243  0.00  0.00  0.1592 H
ATOM   1531  H LYS A 1      11.915  39.048  -1.668  0.00  0.00  0.1910 H
ATOM   1532  H LYS A 1      20.772  36.212  -1.556  0.00  0.00  0.1639 H
ATOM   1533  H LYS A 1      20.940  38.582   0.196  0.00  0.00  0.0636 H
ATOM   1534  H LYS A 1      21.353  35.648   1.018  0.00  0.00  0.0343 H
ATOM   1535  H LYS A 1      21.055  37.091   2.098  0.00  0.00  0.0343 H
ATOM   1536  H LYS A 1      19.218  34.312   0.347  0.00  0.00  0.0819 H
ATOM   1537  H LYS A 1      16.659  34.783   0.269  0.00  0.00  0.1659 H
ATOM   1538  H LYS A 1      19.279  39.089   2.209  0.00  0.00  0.0630 H
ATOM   1539  H LYS A 1      14.923  36.825   1.080  0.00  0.00  0.0645 H
ATOM   1540  H LYS A 1      17.099  40.198   2.666  0.00  0.00  0.0623 H
ATOM   1541  H LYS A 1      14.967  39.172   1.927  0.00  0.00  0.0623 H
ATOM   1542  H LYS A 1      23.073  36.245  -1.365  0.00  0.00  0.1639 H
ATOM   1543  H LYS A 1      25.014  37.084   0.577  0.00  0.00  0.0636 H
ATOM   1544  H LYS A 1      25.008  34.312  -0.804  0.00  0.00  0.0343 H
ATOM   1545  H LYS A 1      26.041  34.827   0.618  0.00  0.00  0.0343 H
ATOM   1546  H LYS A 1      22.712  33.248  -0.228  0.00  0.00  0.0819 H
ATOM   1547  H LYS A 1      21.444  32.697   1.959  0.00  0.00  0.1659 H
ATOM   1548  H LYS A 1      25.605  35.984   2.968  0.00  0.00  0.0630 H
ATOM   1549  H LYS A 1      21.515  33.590   4.658  0.00  0.00  0.0645 H
ATOM   1550  H LYS A 1      24.886  36.213   5.338  0.00  0.00  0.0623 H
ATOM   1551  H LYS A 1      22.908  34.994   6.180  0.00  0.00  0.0623 H
ATOM   1552  H LYS A 1      25.099  36.522  -2.756  0.00  0.00  0.1639 H
ATOM   1553  H LYS A 1      27.747  37.995  -2.712  0.00  0.00  0.0641 H
ATOM   1554  H LYS A 1      28.424  36.672  -4.641  0.00  0.00  0.0416 H
ATOM   1555  H LYS A 1      28.001  35.602  -3.189  0.00  0.00  0.0416 H
ATOM   1556  H LYS A 1      28.160  39.119  -4.679  0.00  0.00  0.1639 H
ATOM   1557  H LYS A 1      25.612  40.239  -5.796  0.00  0.00  0.0638 H
ATOM   1558  H LYS A 1      27.099  41.906  -4.733  0.00  0.00  0.0394 H
ATOM   1559  H LYS A 1      28.475  41.382  -5.740  0.00  0.00  0.0394 H
ATOM   1560  H LYS A 1      27.720  43.583  -8.306  0.00  0.00  0.1591 H
ATOM   1561  H LYS A 1      28.886  42.692  -7.292  0.00  0.00  0.1591 H
ATOM   1562  H LYS A 1      24.973  39.570  -7.720  0.00  0.00  0.1639 H
ATOM   1563  H LYS A 1      27.183  39.080  -9.725  0.00  0.00  0.0638 H
ATOM   1564  H LYS A 1      25.764  37.580 -10.914  0.00  0.00  0.0412 H
ATOM   1565  H LYS A 1      25.801  37.120  -9.152  0.00  0.00  0.0412 H
ATOM   1566  H LYS A 1      22.472  36.649 -10.039  0.00  0.00  0.2963 H
ATOM   1567  H LYS A 1      25.190  41.414  -8.831  0.00  0.00  0.1636 H
ATOM   1568  H LYS A 1      24.686  43.403  -9.829  0.00  0.00  0.0595 H
ATOM   1569  H LYS A 1      25.612  42.766 -11.321  0.00  0.00  0.0595 H
ATOM   1570  H LYS A 1      23.153  40.653 -10.773  0.00  0.00  0.1639 H
ATOM   1571  H LYS A 1      21.275  42.326 -12.395  0.00  0.00  0.0632 H
ATOM   1572  H LYS A 1      20.792  40.392 -13.884  0.00  0.00  0.0294 H
ATOM   1573  H LYS A 1      22.512  40.913 -13.981  0.00  0.00  0.0294 H
ATOM   1574  H LYS A 1      23.113  39.128 -12.342  0.00  0.00  0.0285 H
ATOM   1575  H LYS A 1      21.377  38.582 -12.380  0.00  0.00  0.0285 H
ATOM   1576  H LYS A 1      22.525  38.812 -15.026  0.00  0.00  0.0491 H
ATOM   1577  H LYS A 1      23.437  37.673 -13.967  0.00  0.00  0.0491 H
ATOM   1578  H LYS A 1      21.667  36.283 -13.874  0.00  0.00  0.1631 H
ATOM   1579  H LYS A 1      18.585  38.189 -15.596  0.00  0.00  0.1592 H
ATOM   1580  H LYS A 1      19.845  39.256 -14.921  0.00  0.00  0.1592 H
ATOM   1581  H LYS A 1      18.987  36.065 -15.976  0.00  0.00  0.1910 H
ATOM   1582  H LYS A 1      21.443  41.359  -9.608  0.00  0.00  0.1640 H
ATOM   1583  H LYS A 1      18.847  39.861  -9.550  0.00  0.00  0.0660 H
ATOM   1584  H LYS A 1      20.942  39.850  -7.237  0.00  0.00  0.0625 H
ATOM   1585  H LYS A 1      21.262  37.663  -8.114  0.00  0.00  0.2106 H
ATOM   1586  H LYS A 1      19.445  39.018  -5.915  0.00  0.00  0.0258 H
ATOM   1587  H LYS A 1      18.185  39.409  -7.133  0.00  0.00  0.0258 H
ATOM   1588  H LYS A 1      18.962  37.790  -7.133  0.00  0.00  0.0258 H
ATOM   1589  H LYS A 1      17.382  43.829  -7.857  0.00  0.00  0.0635 H
ATOM   1590  H LYS A 1      14.893  42.144  -7.699  0.00  0.00  0.0294 H
ATOM   1591  H LYS A 1      15.084  43.738  -8.419  0.00  0.00  0.0294 H
ATOM   1592  H LYS A 1      14.842  41.575  -9.989  0.00  0.00  0.0286 H
ATOM   1593  H LYS A 1      15.999  42.825 -10.455  0.00  0.00  0.0286 H
ATOM   1594  H LYS A 1      16.501  40.122  -9.125  0.00  0.00  0.0494 H
ATOM   1595  H LYS A 1      17.455  40.875 -10.379  0.00  0.00  0.0494 H
ATOM   1596  H LYS A 1      17.365  44.422  -5.798  0.00  0.00  0.1636 H
ATOM   1597  H LYS A 1      17.059  44.401  -3.538  0.00  0.00  0.0595 H
ATOM   1598  H LYS A 1      16.277  42.731  -3.724  0.00  0.00  0.0595 H
ATOM   1599  H LYS A 1      19.397  43.048  -4.958  0.00  0.00  0.1640 H
ATOM   1600  H LYS A 1      20.518  40.911  -3.357  0.00  0.00  0.0657 H
ATOM   1601  H LYS A 1      21.401  41.191  -5.434  0.00  0.00  0.0591 H
ATOM   1602  H LYS A 1      21.585  43.000  -5.194  0.00  0.00  0.0591 H
ATOM   1603  H LYS A 1      23.073  41.828  -3.355  0.00  0.00  0.2102 H
ATOM   1604  H LYS A 1      21.610  40.764  -1.562  0.00  0.00  0.1639 H
ATOM   1605  H LYS A 1      22.040  43.274  -0.165  0.00  0.00  0.0632 H
ATOM   1606  H LYS A 1      21.615  40.465   0.980  0.00  0.00  0.0294 H
ATOM   1607  H LYS A 1      22.220  41.894   1.981  0.00  0.00  0.0294 H
ATOM   1608  H LYS A 1      19.615  42.065   0.503  0.00  0.00  0.0285 H
ATOM   1609  H LYS A 1      19.712  41.236   2.092  0.00  0.00  0.0285 H
ATOM   1610  H LYS A 1      20.895  43.224   2.980  0.00  0.00  0.0491 H
ATOM   1611  H LYS A 1      20.525  44.028   1.362  0.00  0.00  0.0491 H
ATOM   1612  H LYS A 1      18.735  43.696   3.626  0.00  0.00  0.1631 H
ATOM   1613  H LYS A 1      17.105  44.360  -0.037  0.00  0.00  0.1592 H
ATOM   1614  H LYS A 1      18.470  43.225   0.141  0.00  0.00  0.1592 H
ATOM   1615  H LYS A 1      16.848  46.012   1.581  0.00  0.00  0.1910 H
ATOM   1616  H LYS A 1      23.745  40.597  -1.339  0.00  0.00  0.1639 H
ATOM   1617  H LYS A 1      25.927  39.838  -1.140  0.00  0.00  0.0638 H
ATOM   1618  H LYS A 1      26.018  41.898  -2.537  0.00  0.00  0.0394 H
ATOM   1619  H LYS A 1      26.659  42.731  -1.033  0.00  0.00  0.0394 H
ATOM   1620  H LYS A 1      29.799  41.895  -2.657  0.00  0.00  0.1591 H
ATOM   1621  H LYS A 1      28.542  43.160  -2.624  0.00  0.00  0.1591 H
ATOM   1622  H LYS A 1      24.937  39.296   1.191  0.00  0.00  0.1639 H
ATOM   1623  H LYS A 1      26.352  40.681   3.364  0.00  0.00  0.0632 H
ATOM   1624  H LYS A 1      24.646  38.175   3.181  0.00  0.00  0.0296 H
ATOM   1625  H LYS A 1      25.419  38.797   4.721  0.00  0.00  0.0296 H
ATOM   1626  H LYS A 1      23.610  40.568   3.061  0.00  0.00  0.0298 H
ATOM   1627  H LYS A 1      22.479  39.131   5.430  0.00  0.00  0.0233 H
ATOM   1628  H LYS A 1      21.684  39.686   3.918  0.00  0.00  0.0233 H
ATOM   1629  H LYS A 1      22.662  38.179   3.918  0.00  0.00  0.0233 H
ATOM   1630  H LYS A 1      23.984  40.478   6.079  0.00  0.00  0.0233 H
ATOM   1631  H LYS A 1      25.212  41.266   5.032  0.00  0.00  0.0233 H
ATOM   1632  H LYS A 1      23.517  41.861   5.032  0.00  0.00  0.0233 H
ATOM   1633  H LYS A 1      27.392  38.208   1.217  0.00  0.00  0.1639 H
ATOM   1634  H LYS A 1      29.461  37.507   3.185  0.00  0.00  0.0641 H
ATOM   1635  H LYS A 1      28.943  36.362   0.476  0.00  0.00  0.0416 H
ATOM   1636  H LYS A 1      30.468  36.055   1.477  0.00  0.00  0.0416 H
ATOM   1637  H LYS A 1      28.945  39.807   0.884  0.00  0.00  0.1639 H
ATOM   1638  H LYS A 1      30.189  41.476  -0.094  0.00  0.00  0.0638 H
ATOM   1639  H LYS A 1      30.909  41.686   2.325  0.00  0.00  0.0394 H
ATOM   1640  H LYS A 1      32.441  40.872   1.807  0.00  0.00  0.0394 H
ATOM   1641  H LYS A 1      33.841  43.892   0.705  0.00  0.00  0.1591 H
ATOM   1642  H LYS A 1      34.035  42.287   1.459  0.00  0.00  0.1591 H
ATOM   1643  H LYS A 1      30.133  39.247  -1.564  0.00  0.00  0.1639 H
ATOM   1644  H LYS A 1      32.855  39.320  -2.827  0.00  0.00  0.0635 H
ATOM   1645  H LYS A 1      32.461  36.728  -3.309  0.00  0.00  0.0326 H
ATOM   1646  H LYS A 1      30.616  37.162  -0.920  0.00  0.00  0.0267 H
ATOM   1647  H LYS A 1      30.141  36.758  -2.655  0.00  0.00  0.0267 H
ATOM   1648  H LYS A 1      33.168  37.057  -0.459  0.00  0.00  0.0234 H
ATOM   1649  H LYS A 1      33.842  36.006  -1.750  0.00  0.00  0.0234 H
ATOM   1650  H LYS A 1      34.196  37.767  -1.750  0.00  0.00  0.0234 H
ATOM   1651  H LYS A 1      30.942  34.965  -0.457  0.00  0.00  0.0230 H
ATOM   1652  H LYS A 1      30.055  34.627  -1.982  0.00  0.00  0.0230 H
ATOM   1653  H LYS A 1      31.850  34.691  -1.982  0.00  0.00  0.0230 H
ATOM   1654  H LYS A 1      30.321  39.270  -6.624  0.00  0.00  0.0635 H
ATOM   1655  H LYS A 1      32.301  38.186  -8.218  0.00  0.00  0.0294 H
ATOM   1656  H LYS A 1      32.044  39.922  -7.946  0.00  0.00  0.0294 H
ATOM   1657  H LYS A 1      34.171  38.157  -6.974  0.00  0.00  0.0286 H
ATOM   1658  H LYS A 1      34.094  39.948  -6.984  0.00  0.00  0.0286 H
ATOM   1659  H LYS A 1      33.551  39.988  -4.765  0.00  0.00  0.0494 H
ATOM   1660  H LYS A 1      33.859  38.255  -4.685  0.00  0.00  0.0494 H
ATOM   1661  H LYS A 1      29.044  37.695  -7.349  0.00  0.00  0.1639 H
ATOM   1662  H LYS A 1      29.132  35.126  -6.210  0.00  0.00  0.0641 H
ATOM   1663  H LYS A 1      27.700  35.737  -8.771  0.00  0.00  0.0416 H
ATOM   1664  H LYS A 1      27.538  34.260  -7.689  0.00  0.00  0.0416 H
ATOM   1665  H LYS A 1      30.520  36.272  -9.289  0.00  0.00  0.1640 H
ATOM   1666  H LYS A 1      31.239  33.886 -10.486  0.00  0.00  0.0657 H
ATOM   1667  H LYS A 1      33.107  35.114 -11.588  0.00  0.00  0.0591 H
ATOM   1668  H LYS A 1      31.594  36.061 -11.597  0.00  0.00  0.0591 H
ATOM   1669  H LYS A 1      32.936  36.523  -9.263  0.00  0.00  0.2102 H
ATOM   1670  H LYS A 1      32.743  35.425  -7.633  0.00  0.00  0.1639 H
ATOM   1671  H LYS A 1      35.134  33.762  -7.760  0.00  0.00  0.0629 H
ATOM   1672  H LYS A 1      34.518  34.492  -5.032  0.00  0.00  0.0257 H
ATOM   1673  H LYS A 1      35.801  35.119  -6.121  0.00  0.00  0.0257 H
ATOM   1674  H LYS A 1      34.172  35.877  -6.121  0.00  0.00  0.0257 H
ATOM   1675  H LYS A 1      31.932  33.067  -6.867  0.00  0.00  0.1639 H
ATOM   1676  H LYS A 1      32.559  30.645  -5.226  0.00  0.00  0.0632 H
ATOM   1677  H LYS A 1      30.010  31.863  -6.235  0.00  0.00  0.0296 H
ATOM   1678  H LYS A 1      30.298  30.460  -5.009  0.00  0.00  0.0296 H
ATOM   1679  H LYS A 1      30.965  33.313  -4.565  0.00  0.00  0.0298 H
ATOM   1680  H LYS A 1      28.948  32.586  -2.761  0.00  0.00  0.0233 H
ATOM   1681  H LYS A 1      28.686  33.531  -4.266  0.00  0.00  0.0233 H
ATOM   1682  H LYS A 1      28.433  31.752  -4.266  0.00  0.00  0.0233 H
ATOM   1683  H LYS A 1      30.761  32.203  -2.107  0.00  0.00  0.0233 H
ATOM   1684  H LYS A 1      31.326  30.773  -3.035  0.00  0.00  0.0233 H
ATOM   1685  H LYS A 1      32.297  32.285  -3.035  0.00  0.00  0.0233 H
ATOM   1686  H LYS A 1      32.711  31.253  -8.466  0.00  0.00  0.1639 H
ATOM   1687  H LYS A 1      32.090  28.377  -9.035  0.00  0.00  0.0632 H
ATOM   1688  H LYS A 1      32.469  30.681 -10.953  0.00  0.00  0.0296 H
ATOM   1689  H LYS A 1      31.922  28.910 -11.270  0.00  0.00  0.0296 H
ATOM   1690  H LYS A 1      30.310  30.923  -9.770  0.00  0.00  0.0298 H
ATOM   1691  H LYS A 1      29.371  31.646 -11.743  0.00  0.00  0.0233 H
ATOM   1692  H LYS A 1      30.904  31.077 -12.486  0.00  0.00  0.0233 H
ATOM   1693  H LYS A 1      29.456  30.013 -12.486  0.00  0.00  0.0233 H
ATOM   1694  H LYS A 1      29.486  28.780  -9.247  0.00  0.00  0.0233 H
ATOM   1695  H LYS A 1      28.604  29.082 -10.782  0.00  0.00  0.0233 H
ATOM   1696  H LYS A 1      30.087  28.068 -10.782  0.00  0.00  0.0233 H
ATOM   1697  H LYS A 1      34.649  29.814  -7.905  0.00  0.00  0.1640 H
ATOM   1698  H LYS A 1      36.739  28.981  -9.727  0.00  0.00  0.0657 H
ATOM   1699  H LYS A 1      36.924  30.564  -7.699  0.00  0.00  0.0591 H
ATOM   1700  H LYS A 1      36.787  29.142  -6.638  0.00  0.00  0.0591 H
ATOM   1701  H LYS A 1      38.935  29.124  -6.957  0.00  0.00  0.2102 H
ATOM   1702  H LYS A 1      38.256  27.351  -9.477  0.00  0.00  0.1640 H
ATOM   1703  H LYS A 1      37.138  24.706  -8.915  0.00  0.00  0.0657 H
ATOM   1704  H LYS A 1      39.681  25.721 -10.042  0.00  0.00  0.0591 H
ATOM   1705  H LYS A 1      39.838  24.211  -9.157  0.00  0.00  0.0591 H
ATOM   1706  H LYS A 1      37.733  23.597 -10.300  0.00  0.00  0.2102 H
ATOM   1707  H LYS A 1      38.907  27.082  -7.263  0.00  0.00  0.1639 H
ATOM   1708  H LYS A 1      39.813  25.515  -4.874  0.00  0.00  0.0638 H
ATOM   1709  H LYS A 1      41.086  27.378  -5.851  0.00  0.00  0.0412 H
ATOM   1710  H LYS A 1      39.589  28.449  -5.531  0.00  0.00  0.0412 H
ATOM   1711  H LYS A 1      42.207  29.135  -3.102  0.00  0.00  0.2963 H
ATOM   1712  H LYS A 1      38.362  25.067  -3.236  0.00  0.00  0.1639 H
ATOM   1713  H LYS A 1      35.818  26.517  -3.393  0.00  0.00  0.0635 H
ATOM   1714  H LYS A 1      35.055  24.916  -1.500  0.00  0.00  0.0326 H
ATOM   1715  H LYS A 1      37.750  23.680  -1.435  0.00  0.00  0.0267 H
ATOM   1716  H LYS A 1      37.166  25.101  -0.353  0.00  0.00  0.0267 H
ATOM   1717  H LYS A 1      35.208  22.816  -2.709  0.00  0.00  0.0234 H
ATOM   1718  H LYS A 1      34.801  24.194  -3.787  0.00  0.00  0.0234 H
ATOM   1719  H LYS A 1      36.464  23.514  -3.787  0.00  0.00  0.0234 H
ATOM   1720  H LYS A 1      36.587  23.617   1.140  0.00  0.00  0.0230 H
ATOM   1721  H LYS A 1      35.274  23.131   0.015  0.00  0.00  0.0230 H
ATOM   1722  H LYS A 1      36.833  22.239   0.015  0.00  0.00  0.0230 H
ATOM   1723  H LYS A 1      38.537  27.579  -1.990  0.00  0.00  0.1640 H
ATOM   1724  H LYS A 1      37.946  28.154   0.603  0.00  0.00  0.0660 H
ATOM   1725  H LYS A 1      39.294  30.237  -1.313  0.00  0.00  0.0625 H
ATOM   1726  H LYS A 1      40.622  28.328   0.397  0.00  0.00  0.2106 H
ATOM   1727  H LYS A 1      39.330  29.990   1.707  0.00  0.00  0.0258 H
ATOM   1728  H LYS A 1      40.405  31.039   0.721  0.00  0.00  0.0258 H
ATOM   1729  H LYS A 1      38.631  31.319   0.721  0.00  0.00  0.0258 H
ATOM   1730  H LYS A 1      37.049  30.298  -2.098  0.00  0.00  0.1639 H
ATOM   1731  H LYS A 1      35.817  32.324  -0.534  0.00  0.00  0.0629 H
ATOM   1732  H LYS A 1      35.181  33.289  -2.494  0.00  0.00  0.0257 H
ATOM   1733  H LYS A 1      36.303  32.062  -3.173  0.00  0.00  0.0257 H
ATOM   1734  H LYS A 1      34.533  31.758  -3.173  0.00  0.00  0.0257 H
ATOM   1735  H LYS A 1      34.389  29.490  -1.977  0.00  0.00  0.1640 H
ATOM   1736  H LYS A 1      31.673  29.917  -1.246  0.00  0.00  0.0657 H
ATOM   1737  H LYS A 1      33.189  27.414  -1.879  0.00  0.00  0.0591 H
ATOM   1738  H LYS A 1      31.383  27.527  -1.539  0.00  0.00  0.0591 H
ATOM   1739  H LYS A 1      31.370  29.080  -3.311  0.00  0.00  0.2102 H
ATOM   1740  H LYS A 1      34.286  27.990   0.323  0.00  0.00  0.1639 H
ATOM   1741  H LYS A 1      32.754  27.190   2.649  0.00  0.00  0.0635 H
ATOM   1742  H LYS A 1      35.767  27.521   2.195  0.00  0.00  0.0323 H
ATOM   1743  H LYS A 1      34.181  27.192   4.677  0.00  0.00  0.0234 H
ATOM   1744  H LYS A 1      35.492  25.988   4.431  0.00  0.00  0.0234 H
ATOM   1745  H LYS A 1      35.873  27.744   4.431  0.00  0.00  0.0234 H
ATOM   1746  H LYS A 1      34.712  24.905   2.799  0.00  0.00  0.0234 H
ATOM   1747  H LYS A 1      33.871  25.633   1.388  0.00  0.00  0.0234 H
ATOM   1748  H LYS A 1      35.662  25.484   1.388  0.00  0.00  0.0234 H
ATOM   1749  H LYS A 1      34.802  30.107   2.079  0.00  0.00  0.1639 H
ATOM   1750  H LYS A 1      34.467  31.080   4.687  0.00  0.00  0.0638 H
ATOM   1751  H LYS A 1      35.119  32.583   2.154  0.00  0.00  0.0394 H
ATOM   1752  H LYS A 1      34.916  33.419   3.746  0.00  0.00  0.0394 H
ATOM   1753  H LYS A 1      37.647  30.890   4.938  0.00  0.00  0.1591 H
ATOM   1754  H LYS A 1      35.871  30.798   5.085  0.00  0.00  0.1591 H
ATOM   1755  H LYS A 1      32.557  31.654   1.815  0.00  0.00  0.1639 H
ATOM   1756  H LYS A 1      30.587  33.411   3.155  0.00  0.00  0.0641 H
ATOM   1757  H LYS A 1      31.020  33.392   0.731  0.00  0.00  0.0416 H
ATOM   1758  H LYS A 1      30.274  31.734   0.666  0.00  0.00  0.0416 H
ATOM   1759  H LYS A 1      30.675  29.898   2.615  0.00  0.00  0.1639 H
ATOM   1760  H LYS A 1      28.112  29.460   3.636  0.00  0.00  0.0629 H
ATOM   1761  H LYS A 1      29.642  27.212   4.534  0.00  0.00  0.0257 H
ATOM   1762  H LYS A 1      28.681  27.347   3.022  0.00  0.00  0.0257 H
ATOM   1763  H LYS A 1      30.423  27.786   3.022  0.00  0.00  0.0257 H
ATOM   1764  H LYS A 1      31.234  29.663   5.352  0.00  0.00  0.1639 H
ATOM   1765  H LYS A 1      30.267  29.015   7.944  0.00  0.00  0.0632 H
ATOM   1766  H LYS A 1      32.545  30.831   7.071  0.00  0.00  0.0293 H
ATOM   1767  H LYS A 1      32.160  30.490   8.806  0.00  0.00  0.0293 H
ATOM   1768  H LYS A 1      32.527  28.114   8.491  0.00  0.00  0.0268 H
ATOM   1769  H LYS A 1      32.704  28.321   6.718  0.00  0.00  0.0268 H
ATOM   1770  H LYS A 1      34.703  29.685   7.034  0.00  0.00  0.0279 H
ATOM   1771  H LYS A 1      34.475  29.586   8.844  0.00  0.00  0.0279 H
ATOM   1772  H LYS A 1      34.866  27.172   8.763  0.00  0.00  0.0425 H
ATOM   1773  H LYS A 1      35.120  27.244   7.002  0.00  0.00  0.0425 H
ATOM   1774  H LYS A 1      36.790  28.297   9.182  0.00  0.00  0.1184 H
ATOM   1775  H LYS A 1      37.251  27.557   7.743  0.00  0.00  0.1184 H
ATOM   1776  H LYS A 1      30.144  32.063   6.141  0.00  0.00  0.1639 H
ATOM   1777  H LYS A 1      29.082  33.564   8.402  0.00  0.00  0.0632 H
ATOM   1778  H LYS A 1      28.874  34.166   5.430  0.00  0.00  0.0293 H
ATOM   1779  H LYS A 1      28.441  35.285   6.794  0.00  0.00  0.0293 H
ATOM   1780  H LYS A 1      30.733  35.263   7.592  0.00  0.00  0.0268 H
ATOM   1781  H LYS A 1      31.181  34.081   6.283  0.00  0.00  0.0268 H
ATOM   1782  H LYS A 1      30.443  35.831   4.614  0.00  0.00  0.0279 H
ATOM   1783  H LYS A 1      30.370  36.990   5.993  0.00  0.00  0.0279 H
ATOM   1784  H LYS A 1      32.767  36.417   6.516  0.00  0.00  0.0425 H
ATOM   1785  H LYS A 1      32.823  35.428   5.031  0.00  0.00  0.0425 H
ATOM   1786  H LYS A 1      32.718  38.323   5.341  0.00  0.00  0.1184 H
ATOM   1787  H LYS A 1      33.401  37.397   4.114  0.00  0.00  0.1184 H
ATOM   1788  H LYS A 1      27.580  31.805   5.716  0.00  0.00  0.1639 H
ATOM   1789  H LYS A 1      24.882  32.589   6.268  0.00  0.00  0.0635 H
ATOM   1790  H LYS A 1      26.027  30.168   4.823  0.00  0.00  0.0326 H
ATOM   1791  H LYS A 1      24.910  32.730   3.680  0.00  0.00  0.0267 H
ATOM   1792  H LYS A 1      26.675  32.257   3.857  0.00  0.00  0.0267 H
ATOM   1793  H LYS A 1      23.502  30.220   5.834  0.00  0.00  0.0234 H
ATOM   1794  H LYS A 1      23.220  31.077   4.280  0.00  0.00  0.0234 H
ATOM   1795  H LYS A 1      23.930  29.427   4.280  0.00  0.00  0.0234 H
ATOM   1796  H LYS A 1      25.584  30.114   2.467  0.00  0.00  0.0230 H
ATOM   1797  H LYS A 1      24.732  31.528   1.758  0.00  0.00  0.0230 H
ATOM   1798  H LYS A 1      26.527  31.469   1.758  0.00  0.00  0.0230 H
ATOM   1799  H LYS A 1      26.831  29.932   7.534  0.00  0.00  0.1639 H
ATOM   1800  H LYS A 1      24.465  28.634   8.806  0.00  0.00  0.0635 H
ATOM   1801  H LYS A 1      26.438  27.444   7.810  0.00  0.00  0.0323 H
ATOM   1802  H LYS A 1      27.874  28.154  10.377  0.00  0.00  0.0234 H
ATOM   1803  H LYS A 1      28.515  27.392   8.882  0.00  0.00  0.0234 H
ATOM   1804  H LYS A 1      28.067  29.131   8.882  0.00  0.00  0.0234 H
ATOM   1805  H LYS A 1      25.925  26.785  10.711  0.00  0.00  0.0234 H
ATOM   1806  H LYS A 1      24.774  26.458   9.372  0.00  0.00  0.0234 H
ATOM   1807  H LYS A 1      26.394  25.684   9.372  0.00  0.00  0.0234 H
ATOM   1808  H LYS A 1      26.761  31.042   9.592  0.00  0.00  0.1640 H
ATOM   1809  H LYS A 1      26.220  30.867  12.525  0.00  0.00  0.0657 H
ATOM   1810  H LYS A 1      27.789  32.801  10.817  0.00  0.00  0.0591 H
ATOM   1811  H LYS A 1      27.663  32.811  12.634  0.00  0.00  0.0591 H
ATOM   1812  H LYS A 1      28.915  31.089  12.771  0.00  0.00  0.2102 H
ATOM   1813  H LYS A 1      24.490  31.988   9.942  0.00  0.00  0.1639 H
ATOM   1814  H LYS A 1      23.559  34.389  11.154  0.00  0.00  0.0638 H
ATOM   1815  H LYS A 1      23.675  33.633   8.571  0.00  0.00  0.0412 H
ATOM   1816  H LYS A 1      21.922  33.256   8.938  0.00  0.00  0.0412 H
ATOM   1817  H LYS A 1      20.958  36.444   8.395  0.00  0.00  0.2963 H
ATOM   1818  H LYS A 1      22.331  31.181  11.552  0.00  0.00  0.1636 H
ATOM   1819  H LYS A 1      21.052  31.534  13.828  0.00  0.00  0.0595 H
ATOM   1820  H LYS A 1      19.925  32.504  12.744  0.00  0.00  0.0595 H
ATOM   1821  H LYS A 1      20.320  30.544  10.533  0.00  0.00  0.1639 H
ATOM   1822  H LYS A 1      18.495  28.486  11.728  0.00  0.00  0.0638 H
ATOM   1823  H LYS A 1      17.718  30.115   9.847  0.00  0.00  0.0394 H
ATOM   1824  H LYS A 1      18.374  28.723   8.851  0.00  0.00  0.0394 H
ATOM   1825  H LYS A 1      14.801  27.896   9.382  0.00  0.00  0.1591 H
ATOM   1826  H LYS A 1      15.744  29.101   8.463  0.00  0.00  0.1591 H
ATOM   1827  H LYS A 1      21.570  28.596  11.407  0.00  0.00  0.1636 H
ATOM   1828  H LYS A 1      23.190  26.873  11.160  0.00  0.00  0.0595 H
ATOM   1829  H LYS A 1      21.866  25.732  11.505  0.00  0.00  0.0595 H
ATOM   1830  H LYS A 1      22.129  24.164   9.884  0.00  0.00  0.1639 H
ATOM   1831  H LYS A 1      22.867  25.107   7.158  0.00  0.00  0.0632 H
ATOM   1832  H LYS A 1      22.634  22.356   8.387  0.00  0.00  0.0301 H
ATOM   1833  H LYS A 1      22.902  22.653   6.614  0.00  0.00  0.0301 H
ATOM   1834  H LYS A 1      24.905  24.020   7.221  0.00  0.00  0.0381 H
ATOM   1835  H LYS A 1      24.693  23.490   8.923  0.00  0.00  0.0381 H
ATOM   1836  H LYS A 1      25.147  22.729   5.364  0.00  0.00  0.0344 H
ATOM   1837  H LYS A 1      26.355  21.400   5.323  0.00  0.00  0.0344 H
ATOM   1838  H LYS A 1      24.599  21.018   5.323  0.00  0.00  0.0344 H
ATOM   1839  H LYS A 1      20.037  25.205   8.687  0.00  0.00  0.1639 H
ATOM   1840  H LYS A 1      18.334  23.891   6.722  0.00  0.00  0.0638 H
ATOM   1841  H LYS A 1      17.669  26.017   8.713  0.00  0.00  0.0394 H
ATOM   1842  H LYS A 1      16.497  25.346   7.518  0.00  0.00  0.0394 H
ATOM   1843  H LYS A 1      17.413  23.246  10.890  0.00  0.00  0.1591 H
ATOM   1844  H LYS A 1      17.929  24.932  10.613  0.00  0.00  0.1591 H
ATOM   1845  H LYS A 1      20.302  26.669   6.569  0.00  0.00  0.1639 H
ATOM   1846  H LYS A 1      18.916  28.125   4.520  0.00  0.00  0.0629 H
ATOM   1847  H LYS A 1      21.222  28.486   5.959  0.00  0.00  0.0257 H
ATOM   1848  H LYS A 1      21.938  27.891   4.423  0.00  0.00  0.0257 H
ATOM   1849  H LYS A 1      20.912  29.365   4.423  0.00  0.00  0.0257 H
ATOM   1850  H LYS A 1      20.542  25.061   4.366  0.00  0.00  0.1639 H
ATOM   1851  H LYS A 1      20.585  25.255   1.342  0.00  0.00  0.0636 H
ATOM   1852  H LYS A 1      21.951  23.424   3.356  0.00  0.00  0.0343 H
ATOM   1853  H LYS A 1      21.819  22.994   1.619  0.00  0.00  0.0343 H
ATOM   1854  H LYS A 1      22.879  24.978  -0.153  0.00  0.00  0.0819 H
ATOM   1855  H LYS A 1      24.905  26.578   0.181  0.00  0.00  0.1659 H
ATOM   1856  H LYS A 1      23.123  24.810   4.950  0.00  0.00  0.0630 H
ATOM   1857  H LYS A 1      26.417  27.576   2.351  0.00  0.00  0.0645 H
ATOM   1858  H LYS A 1      24.800  26.219   6.133  0.00  0.00  0.0623 H
ATOM   1859  H LYS A 1      26.443  27.556   4.837  0.00  0.00  0.0623 H
ATOM   1860  H LYS A 1      18.686  24.655   0.402  0.00  0.00  0.1639 H
ATOM   1861  H LYS A 1      16.787  23.170   2.013  0.00  0.00  0.0635 H
ATOM   1862  H LYS A 1      15.880  24.625   0.601  0.00  0.00  0.0323 H
ATOM   1863  H LYS A 1      17.578  24.421  -1.274  0.00  0.00  0.0234 H
ATOM   1864  H LYS A 1      16.709  22.942  -1.807  0.00  0.00  0.0234 H
ATOM   1865  H LYS A 1      15.866  24.529  -1.807  0.00  0.00  0.0234 H
ATOM   1866  H LYS A 1      14.596  22.568   1.171  0.00  0.00  0.0234 H
ATOM   1867  H LYS A 1      14.087  23.308  -0.385  0.00  0.00  0.0234 H
ATOM   1868  H LYS A 1      15.121  21.839  -0.385  0.00  0.00  0.0234 H
ATOM   1869  H LYS A 1      19.081  22.081  -0.367  0.00  0.00  0.1639 H
ATOM   1870  H LYS A 1      18.059  19.410  -0.554  0.00  0.00  0.0629 H
ATOM   1871  H LYS A 1      20.893  19.592  -1.134  0.00  0.00  0.0257 H
ATOM   1872  H LYS A 1      19.503  18.928  -2.058  0.00  0.00  0.0257 H
ATOM   1873  H LYS A 1      19.818  20.696  -2.058  0.00  0.00  0.0257 H
ATOM   1874  H LYS A 1      20.317  20.965   1.651  0.00  0.00  0.1639 H
ATOM   1875  H LYS A 1      21.162  18.602   3.030  0.00  0.00  0.0636 H
ATOM   1876  H LYS A 1      22.396  20.591   3.323  0.00  0.00  0.0343 H
ATOM   1877  H LYS A 1      20.974  21.414   4.068  0.00  0.00  0.0343 H
ATOM   1878  H LYS A 1      23.555  18.597   4.725  0.00  0.00  0.0819 H
ATOM   1879  H LYS A 1      23.515  17.945   7.252  0.00  0.00  0.1659 H
ATOM   1880  H LYS A 1      19.685  21.625   6.187  0.00  0.00  0.0630 H
ATOM   1881  H LYS A 1      22.058  18.702   9.527  0.00  0.00  0.0645 H
ATOM   1882  H LYS A 1      19.019  21.628   8.583  0.00  0.00  0.0623 H
ATOM   1883  H LYS A 1      20.097  20.100  10.206  0.00  0.00  0.0623 H
ATOM   1884  H LYS A 1      18.627  20.972   3.838  0.00  0.00  0.1639 H
ATOM   1885  H LYS A 1      17.487  19.706   6.006  0.00  0.00  0.0632 H
ATOM   1886  H LYS A 1      15.688  20.922   3.980  0.00  0.00  0.0294 H
ATOM   1887  H LYS A 1      15.699  20.824   5.901  0.00  0.00  0.0294 H
ATOM   1888  H LYS A 1      17.161  22.571   6.023  0.00  0.00  0.0285 H
ATOM   1889  H LYS A 1      17.205  22.736   4.227  0.00  0.00  0.0285 H
ATOM   1890  H LYS A 1      14.617  22.794   5.762  0.00  0.00  0.0491 H
ATOM   1891  H LYS A 1      15.679  24.270   5.540  0.00  0.00  0.0491 H
ATOM   1892  H LYS A 1      14.289  22.762   3.395  0.00  0.00  0.1631 H
ATOM   1893  H LYS A 1      15.540  26.569   2.801  0.00  0.00  0.1592 H
ATOM   1894  H LYS A 1      16.280  25.668   4.151  0.00  0.00  0.1592 H
ATOM   1895  H LYS A 1      13.706  25.884   1.856  0.00  0.00  0.1910 H
ATOM   1896  H LYS A 1      16.770  19.206   2.460  0.00  0.00  0.1639 H
ATOM   1897  H LYS A 1      14.560  17.434   3.118  0.00  0.00  0.0638 H
ATOM   1898  H LYS A 1      15.837  18.006   0.453  0.00  0.00  0.0394 H
ATOM   1899  H LYS A 1      14.410  16.896   0.739  0.00  0.00  0.0394 H
ATOM   1900  H LYS A 1      13.199  20.356  -0.247  0.00  0.00  0.1591 H
ATOM   1901  H LYS A 1      14.355  19.214  -0.984  0.00  0.00  0.1591 H
ATOM   1902  H LYS A 1      17.921  16.929   2.398  0.00  0.00  0.1639 H
ATOM   1903  H LYS A 1      17.454  14.001   2.188  0.00  0.00  0.0632 H
ATOM   1904  H LYS A 1      19.012  15.914   0.354  0.00  0.00  0.0294 H
ATOM   1905  H LYS A 1      19.427  14.186   0.383  0.00  0.00  0.0294 H
ATOM   1906  H LYS A 1      16.904  13.708   0.083  0.00  0.00  0.0285 H
ATOM   1907  H LYS A 1      16.740  15.496  -0.249  0.00  0.00  0.0285 H
ATOM   1908  H LYS A 1      18.544  13.665  -1.816  0.00  0.00  0.0491 H
ATOM   1909  H LYS A 1      16.851  14.016  -2.272  0.00  0.00  0.0491 H
ATOM   1910  H LYS A 1      18.734  16.300  -1.722  0.00  0.00  0.1631 H
ATOM   1911  H LYS A 1      17.134  15.564  -5.398  0.00  0.00  0.1592 H
ATOM   1912  H LYS A 1      17.276  14.226  -4.225  0.00  0.00  0.1592 H
ATOM   1913  H LYS A 1      17.484  17.708  -4.742  0.00  0.00  0.1910 H
ATOM   1914  H LYS A 1      19.362  16.328   3.738  0.00  0.00  0.1639 H
ATOM   1915  H LYS A 1      21.177  14.011   4.516  0.00  0.00  0.0641 H
ATOM   1916  H LYS A 1      21.646  17.034   4.667  0.00  0.00  0.0416 H
ATOM   1917  H LYS A 1      22.839  15.696   5.048  0.00  0.00  0.0416 H
ATOM   1918  H LYS A 1      19.383  16.624   5.946  0.00  0.00  0.1639 H
ATOM   1919  H LYS A 1      20.200  16.211   8.689  0.00  0.00  0.0632 H
ATOM   1920  H LYS A 1      19.123  18.233   7.891  0.00  0.00  0.0293 H
ATOM   1921  H LYS A 1      17.657  17.303   7.412  0.00  0.00  0.0293 H
ATOM   1922  H LYS A 1      17.596  16.529   9.910  0.00  0.00  0.0268 H
ATOM   1923  H LYS A 1      18.719  17.909  10.203  0.00  0.00  0.0268 H
ATOM   1924  H LYS A 1      16.891  19.247   8.778  0.00  0.00  0.0279 H
ATOM   1925  H LYS A 1      15.814  17.931   9.349  0.00  0.00  0.0279 H
ATOM   1926  H LYS A 1      16.618  18.366  11.692  0.00  0.00  0.0425 H
ATOM   1927  H LYS A 1      17.545  19.786  11.039  0.00  0.00  0.0425 H
ATOM   1928  H LYS A 1      15.244  20.160  12.044  0.00  0.00  0.1184 H
ATOM   1929  H LYS A 1      15.632  20.917  10.593  0.00  0.00  0.1184 H
ATOM   1930  H LYS A 1      19.976  14.765  10.062  0.00  0.00  0.1636 H
ATOM   1931  H LYS A 1      18.799  13.161  11.340  0.00  0.00  0.0595 H
ATOM   1932  H LYS A 1      17.483  13.179  10.040  0.00  0.00  0.0595 H
ATOM   1933  H LYS A 1      20.176  12.712   8.350  0.00  0.00  0.1640 H
ATOM   1934  H LYS A 1      19.855   9.713   8.453  0.00  0.00  0.0660 H
ATOM   1935  H LYS A 1      20.537   9.551   6.198  0.00  0.00  0.0625 H
ATOM   1936  H LYS A 1      22.036  11.758   6.953  0.00  0.00  0.2106 H
ATOM   1937  H LYS A 1      18.446  11.361   6.924  0.00  0.00  0.0258 H
ATOM   1938  H LYS A 1      19.270  12.001   5.462  0.00  0.00  0.0258 H
ATOM   1939  H LYS A 1      18.608  10.331   5.462  0.00  0.00  0.0258 H
ATOM   1940  H LYS A 1      21.805   8.539   7.919  0.00  0.00  0.1639 H
ATOM   1941  H LYS A 1      24.021   9.145   9.779  0.00  0.00  0.0638 H
ATOM   1942  H LYS A 1      23.226   6.868   9.452  0.00  0.00  0.0412 H
ATOM   1943  H LYS A 1      23.737   6.957   7.716  0.00  0.00  0.0412 H
ATOM   1944  H LYS A 1      26.627   5.437   9.034  0.00  0.00  0.2963 H
ATOM   1945  H LYS A 1      24.550  11.195   8.935  0.00  0.00  0.1639 H
ATOM   1946  H LYS A 1      25.557  11.489   6.267  0.00  0.00  0.0635 H
ATOM   1947  H LYS A 1      26.462  13.683   7.030  0.00  0.00  0.0323 H
ATOM   1948  H LYS A 1      23.745  13.888   8.067  0.00  0.00  0.0234 H
ATOM   1949  H LYS A 1      24.490  14.565   6.580  0.00  0.00  0.0234 H
ATOM   1950  H LYS A 1      23.850  12.887   6.580  0.00  0.00  0.0234 H
ATOM   1951  H LYS A 1      25.464  12.893   9.746  0.00  0.00  0.0234 H
ATOM   1952  H LYS A 1      27.148  13.241   9.228  0.00  0.00  0.0234 H
ATOM   1953  H LYS A 1      25.920  14.551   9.228  0.00  0.00  0.0234 H
ATOM   1954  H LYS A 1      27.028  10.272   9.069  0.00  0.00  0.1639 H
ATOM   1955  H LYS A 1      29.806  10.551   8.334  0.00  0.00  0.0632 H
ATOM   1956  H LYS A 1      28.504   9.597  10.481  0.00  0.00  0.0298 H
ATOM   1957  H LYS A 1      28.672   8.036   9.619  0.00  0.00  0.0298 H
ATOM   1958  H LYS A 1      30.993   8.071   9.725  0.00  0.00  0.0368 H
ATOM   1959  H LYS A 1      31.059   9.869   9.831  0.00  0.00  0.0368 H
ATOM   1960  H LYS A 1      29.850   7.695  13.165  0.00  0.00  0.1591 H
ATOM   1961  H LYS A 1      29.352   7.270  11.506  0.00  0.00  0.1591 H
ATOM   1962  H LYS A 1      27.372   8.331   7.019  0.00  0.00  0.1639 H
ATOM   1963  H LYS A 1      28.938   6.620   5.534  0.00  0.00  0.0629 H
ATOM   1964  H LYS A 1      26.311   7.094   5.628  0.00  0.00  0.0257 H
ATOM   1965  H LYS A 1      26.648   8.087   4.169  0.00  0.00  0.0257 H
ATOM   1966  H LYS A 1      27.031   6.332   4.169  0.00  0.00  0.0257 H
ATOM   1967  H LYS A 1      28.395  10.032   4.944  0.00  0.00  0.1639 H
ATOM   1968  H LYS A 1      29.585  10.051   2.287  0.00  0.00  0.0636 H
ATOM   1969  H LYS A 1      29.019  12.233   4.386  0.00  0.00  0.0343 H
ATOM   1970  H LYS A 1      29.577  12.592   2.724  0.00  0.00  0.0343 H
ATOM   1971  H LYS A 1      26.445  11.624   4.687  0.00  0.00  0.0819 H
ATOM   1972  H LYS A 1      24.425  11.404   3.086  0.00  0.00  0.1659 H
ATOM   1973  H LYS A 1      29.046  11.515   0.267  0.00  0.00  0.0630 H
ATOM   1974  H LYS A 1      24.017  11.070   0.320  0.00  0.00  0.0645 H
ATOM   1975  H LYS A 1      27.746  11.378  -1.852  0.00  0.00  0.0623 H
ATOM   1976  H LYS A 1      25.310  10.919  -1.813  0.00  0.00  0.0623 H
ATOM   1977  H LYS A 1      31.112   9.997   5.323  0.00  0.00  0.1639 H
ATOM   1978  H LYS A 1      33.672  10.567   3.853  0.00  0.00  0.0635 H
ATOM   1979  H LYS A 1      34.594  11.504   5.975  0.00  0.00  0.0326 H
ATOM   1980  H LYS A 1      31.935  11.385   7.316  0.00  0.00  0.0267 H
ATOM   1981  H LYS A 1      33.038   9.887   7.241  0.00  0.00  0.0267 H
ATOM   1982  H LYS A 1      32.808  13.434   6.262  0.00  0.00  0.0234 H
ATOM   1983  H LYS A 1      33.812  13.275   4.781  0.00  0.00  0.0234 H
ATOM   1984  H LYS A 1      32.113  12.693   4.781  0.00  0.00  0.0234 H
ATOM   1985  H LYS A 1      33.185  11.118   9.389  0.00  0.00  0.0230 H
ATOM   1986  H LYS A 1      34.731  10.983   8.485  0.00  0.00  0.0230 H
ATOM   1987  H LYS A 1      33.823  12.533   8.485  0.00  0.00  0.0230 H
ATOM   1988  H LYS A 1      32.061   8.035   5.080  0.00  0.00  0.1639 H
ATOM   1989  H LYS A 1      34.290   6.525   6.172  0.00  0.00  0.0632 H
ATOM   1990  H LYS A 1      31.585   5.810   5.059  0.00  0.00  0.0294 H
ATOM   1991  H LYS A 1      32.822   4.536   5.406  0.00  0.00  0.0294 H
ATOM   1992  H LYS A 1      33.038   5.584   7.746  0.00  0.00  0.0285 H
ATOM   1993  H LYS A 1      31.555   6.516   7.366  0.00  0.00  0.0285 H
ATOM   1994  H LYS A 1      30.777   4.029   6.572  0.00  0.00  0.0491 H
ATOM   1995  H LYS A 1      31.922   3.600   7.890  0.00  0.00  0.0491 H
ATOM   1996  H LYS A 1      30.639   4.840   9.428  0.00  0.00  0.1631 H
ATOM   1997  H LYS A 1      27.326   4.885   7.126  0.00  0.00  0.1592 H
ATOM   1998  H LYS A 1      28.840   4.261   6.419  0.00  0.00  0.1592 H
ATOM   1999  H LYS A 1      27.385   5.765   9.365  0.00  0.00  0.1910 H
ATOM   2000  H LYS A 1      35.870   5.498   5.201  0.00  0.00  0.1636 H
ATOM   2001  H LYS A 1      36.797   4.129   3.405  0.00  0.00  0.0595 H
ATOM   2002  H LYS A 1      35.608   4.874   2.260  0.00  0.00  0.0595 H
ATOM   2003  H LYS A 1      36.670   7.349   4.073  0.00  0.00  0.1639 H
ATOM   2004  H LYS A 1      38.640   8.182   1.950  0.00  0.00  0.0641 H
ATOM   2005  H LYS A 1      37.113   9.773   4.026  0.00  0.00  0.0416 H
ATOM   2006  H LYS A 1      38.163  10.366   2.589  0.00  0.00  0.0416 H
ATOM   2007  H LYS A 1      40.666   8.756   2.368  0.00  0.00  0.1639 H
ATOM   2008  H LYS A 1      41.687   8.435   5.180  0.00  0.00  0.0632 H
ATOM   2009  H LYS A 1      43.000   8.241   2.610  0.00  0.00  0.0294 H
ATOM   2010  H LYS A 1      43.901   8.917   4.032  0.00  0.00  0.0294 H
ATOM   2011  H LYS A 1      42.249   6.393   4.332  0.00  0.00  0.0285 H
ATOM   2012  H LYS A 1      43.916   6.337   3.617  0.00  0.00  0.0285 H
ATOM   2013  H LYS A 1      43.292   7.651   6.260  0.00  0.00  0.0491 H
ATOM   2014  H LYS A 1      43.746   5.898   6.071  0.00  0.00  0.0491 H
ATOM   2015  H LYS A 1      45.850   6.667   5.052  0.00  0.00  0.1631 H
ATOM   2016  H LYS A 1      45.767   9.821   7.620  0.00  0.00  0.1592 H
ATOM   2017  H LYS A 1      44.239   8.940   7.350  0.00  0.00  0.1592 H
ATOM   2018  H LYS A 1      47.618   9.319   6.464  0.00  0.00  0.1910 H
ATOM   2019  H LYS A 1      41.001   9.929   6.371  0.00  0.00  0.1639 H
ATOM   2020  H LYS A 1      41.291  12.818   5.477  0.00  0.00  0.0651 H
ATOM   2021  H LYS A 1      39.214  11.367   6.955  0.00  0.00  0.0296 H
ATOM   2022  H LYS A 1      39.698  13.122   7.412  0.00  0.00  0.0296 H
ATOM   2023  H LYS A 1      38.688  14.012   5.726  0.00  0.00  0.0298 H
ATOM   2024  H LYS A 1      40.049  12.081   4.185  0.00  0.00  0.0233 H
ATOM   2025  H LYS A 1      38.327  12.085   3.674  0.00  0.00  0.0233 H
ATOM   2026  H LYS A 1      39.268  13.616   3.674  0.00  0.00  0.0233 H
ATOM   2027  H LYS A 1      37.145  12.254   6.971  0.00  0.00  0.0233 H
ATOM   2028  H LYS A 1      36.541  12.972   5.439  0.00  0.00  0.0233 H
ATOM   2029  H LYS A 1      37.249  11.322   5.439  0.00  0.00  0.0233 H
ATOM   2030  H LYS A 1      43.982  12.890   7.514  0.00  0.00  0.2964 H
ATOM   2031  H LYS A 1      23.434  40.063  -5.671  0.00  0.00  0.2058 H
ATOM   2032  H LYS A 1      23.434  40.996  -6.991  0.00  0.00  0.2058 H
ATOM   2033  H LYS A 1      31.994  26.416  -5.057  0.00  0.00  0.2058 H
ATOM   2034  H LYS A 1      31.994  27.349  -6.377  0.00  0.00  0.2058 H
ATOM   2035  H LYS A 1      30.250  13.337  10.777  0.00  0.00  0.2058 H
ATOM   2036  H LYS A 1      30.250  14.270   9.457  0.00  0.00  0.2058 H
ATOM   2037  H LYS A 1      22.384  42.331  -7.175  0.00  0.00  0.2058 H
ATOM   2038  H LYS A 1      22.384  43.264  -8.495  0.00  0.00  0.2058 H
ATOM   2039  H LYS A 1      29.239  27.621  -2.680  0.00  0.00  0.2058 H
ATOM   2040  H LYS A 1      29.239  28.554  -4.000  0.00  0.00  0.2058 H
ATOM   2041  H LYS A 1      29.464  37.761  -9.502  0.00  0.00  0.2058 H
ATOM   2042  H LYS A 1      29.464  38.694 -10.822  0.00  0.00  0.2058 H
ATOM   2043  H LYS A 1      20.807  36.305 -10.092  0.00  0.00  0.2058 H
ATOM   2044  H LYS A 1      20.807  37.238 -11.412  0.00  0.00  0.2058 H
ATOM   2045  H LYS A 1      41.318  17.849  -0.388  0.00  0.00  0.2058 H
ATOM   2046  H LYS A 1      41.318  18.782  -1.708  0.00  0.00  0.2058 H
ATOM   2047  H LYS A 1      34.697  29.056  -3.049  0.00  0.00  0.2058 H
ATOM   2048  H LYS A 1      34.697  29.989  -4.369  0.00  0.00  0.2058 H
ATOM   2049  H LYS A 1      26.871  17.298  14.486  0.00  0.00  0.2058 H
ATOM   2050  H LYS A 1      26.871  18.231  13.166  0.00  0.00  0.2058 H
ATOM   2051  H LYS A 1      32.131  11.050  -4.827  0.00  0.00  0.2058 H
ATOM   2052  H LYS A 1      32.131  11.983  -6.147  0.00  0.00  0.2058 H
ATOM   2053  H LYS A 1      23.468  40.040  -1.382  0.00  0.00  0.2058 H
ATOM   2054  H LYS A 1      23.468  40.973  -2.702  0.00  0.00  0.2058 H
ATOM   2055  H LYS A 1      21.390  45.524 -10.045  0.00  0.00  0.2058 H
ATOM   2056  H LYS A 1      21.390  46.457 -11.365  0.00  0.00  0.2058 H
ATOM   2057  H LYS A 1      34.490  26.578  -4.751  0.00  0.00  0.2058 H
ATOM   2058  H LYS A 1      34.490  27.511  -6.071  0.00  0.00  0.2058 H
ATOM   2059  H LYS A 1      16.422  34.139  -2.537  0.00  0.00  0.2058 H
ATOM   2060  H LYS A 1      16.422  35.072  -3.857  0.00  0.00  0.2058 H
ATOM   2061  H LYS A 1      21.374  29.926   9.936  0.00  0.00  0.2058 H
ATOM   2062  H LYS A 1      21.374  30.859   8.616  0.00  0.00  0.2058 H
ATOM   2063  H LYS A 1      41.048  12.539   0.979  0.00  0.00  0.2058 H
ATOM   2064  H LYS A 1      41.048  13.472  -0.341  0.00  0.00  0.2058 H
ATOM   2065  H LYS A 1      32.794  35.686   3.548  0.00  0.00  0.2058 H
ATOM   2066  H LYS A 1      32.794  36.619   2.228  0.00  0.00  0.2058 H
ATOM   2067  H LYS A 1      49.648   8.964   7.333  0.00  0.00  0.2058 H
ATOM   2068  H LYS A 1      49.648   9.897   6.013  0.00  0.00  0.2058 H
ATOM   2069  H LYS A 1      14.452  34.901 -12.349  0.00  0.00  0.2058 H
ATOM   2070  H LYS A 1      14.452  35.834 -13.669  0.00  0.00  0.2058 H
ATOM   2071  H LYS A 1      22.930  10.839   5.034  0.00  0.00  0.2058 H
ATOM   2072  H LYS A 1      22.930  11.772   3.714  0.00  0.00  0.2058 H
ATOM   2073  H LYS A 1      16.012  18.490  -1.210  0.00  0.00  0.2058 H
ATOM   2074  H LYS A 1      16.012  19.423  -2.530  0.00  0.00  0.2058 H
ATOM   2075  H LYS A 1      12.130  21.587   4.034  0.00  0.00  0.2058 H
ATOM   2076  H LYS A 1      12.130  22.520   2.714  0.00  0.00  0.2058 H
ATOM   2077  H LYS A 1      15.684  38.922  -4.823  0.00  0.00  0.2058 H
ATOM   2078  H LYS A 1      15.684  39.855  -6.143  0.00  0.00  0.2058 H
ATOM   2079  H LYS A 1      10.652  24.228   4.418  0.00  0.00  0.2058 H
ATOM   2080  H LYS A 1      10.652  25.161   3.098  0.00  0.00  0.2058 H
ATOM   2081  H LYS A 1      44.070  17.975   3.842  0.00  0.00  0.2058 H
ATOM   2082  H LYS A 1      44.070  18.908   2.522  0.00  0.00  0.2058 H
ATOM   2083  H LYS A 1      32.029  13.080  -7.120  0.00  0.00  0.2058 H
ATOM   2084  H LYS A 1      32.029  14.013  -8.440  0.00  0.00  0.2058 H
ATOM   2085  H LYS A 1      36.425  19.613  16.164  0.00  0.00  0.2058 H
ATOM   2086  H LYS A 1      36.425  20.546  14.844  0.00  0.00  0.2058 H
ATOM   2087  H LYS A 1      37.941  30.505  -2.696  0.00  0.00  0.2058 H
ATOM   2088  H LYS A 1      37.941  31.438  -4.016  0.00  0.00  0.2058 H
ATOM   2089  H LYS A 1      30.710  42.741  -5.299  0.00  0.00  0.2058 H
ATOM   2090  H LYS A 1      30.710  43.674  -6.619  0.00  0.00  0.2058 H
ATOM   2091  H LYS A 1      23.922  44.367  -6.663  0.00  0.00  0.2058 H
ATOM   2092  H LYS A 1      23.922  45.300  -7.983  0.00  0.00  0.2058 H
ATOM   2093  H LYS A 1      33.829  34.252   1.616  0.00  0.00  0.2058 H
ATOM   2094  H LYS A 1      33.829  35.185   0.296  0.00  0.00  0.2058 H
ATOM   2095  H LYS A 1      29.613  40.730  -8.612  0.00  0.00  0.2058 H
ATOM   2096  H LYS A 1      29.613  41.663  -9.932  0.00  0.00  0.2058 H
ATOM   2097  H LYS A 1      23.563   7.995   5.396  0.00  0.00  0.2058 H
ATOM   2098  H LYS A 1      23.563   8.928   4.076  0.00  0.00  0.2058 H
ATOM   2099  H LYS A 1      31.511  42.362  -3.193  0.00  0.00  0.2058 H
ATOM   2100  H LYS A 1      31.511  43.295  -4.513  0.00  0.00  0.2058 H
ATOM   2101  H LYS A 1      21.882  29.536 -14.023  0.00  0.00  0.2058 H
ATOM   2102  H LYS A 1      21.882  30.469 -15.343  0.00  0.00  0.2058 H
ATOM   2103  H LYS A 1      37.763  20.913  10.772  0.00  0.00  0.2058 H
ATOM   2104  H LYS A 1      37.763  21.846   9.452  0.00  0.00  0.2058 H
ATOM   2105  H LYS A 1      42.338  17.481   6.155  0.00  0.00  0.2058 H
ATOM   2106  H LYS A 1      42.338  18.414   4.835  0.00  0.00  0.2058 H
ATOM   2107  H LYS A 1      23.344  39.739  -3.368  0.00  0.00  0.2058 H
ATOM   2108  H LYS A 1      23.344  40.672  -4.688  0.00  0.00  0.2058 H
ATOM   2109  H LYS A 1      22.984  29.224  14.114  0.00  0.00  0.2058 H
ATOM   2110  H LYS A 1      22.984  30.157  12.794  0.00  0.00  0.2058 H
ATOM   2111  H LYS A 1      30.778   7.794  -2.524  0.00  0.00  0.2058 H
ATOM   2112  H LYS A 1      30.778   8.727  -3.844  0.00  0.00  0.2058 H
ATOM   2113  H LYS A 1      42.965  14.657   5.981  0.00  0.00  0.2058 H
ATOM   2114  H LYS A 1      42.965  15.590   4.661  0.00  0.00  0.2058 H
ATOM   2115  H LYS A 1      36.927  17.948 -12.103  0.00  0.00  0.2058 H
ATOM   2116  H LYS A 1      36.927  18.881 -13.423  0.00  0.00  0.2058 H
ATOM   2117  H LYS A 1      35.412  25.852 -10.585  0.00  0.00  0.2058 H
ATOM   2118  H LYS A 1      35.412  26.785 -11.905  0.00  0.00  0.2058 H
ATOM   2119  H LYS A 1      37.428  32.540  -4.797  0.00  0.00  0.2058 H
ATOM   2120  H LYS A 1      37.428  33.473  -6.117  0.00  0.00  0.2058 H
ATOM   2121  H LYS A 1      37.317   8.592   8.446  0.00  0.00  0.2058 H
ATOM   2122  H LYS A 1      37.317   9.525   7.126  0.00  0.00  0.2058 H
ATOM   2123  H LYS A 1       9.314  36.705 -10.556  0.00  0.00  0.2058 H
ATOM   2124  H LYS A 1       9.314  37.638 -11.876  0.00  0.00  0.2058 H
ATOM   2125  H LYS A 1      39.972  23.760  -1.665  0.00  0.00  0.2058 H
ATOM   2126  H LYS A 1      39.972  24.693  -2.985  0.00  0.00  0.2058 H
ATOM   2127  H LYS A 1      22.128  30.274   0.447  0.00  0.00  0.2058 H
ATOM   2128  H LYS A 1      22.128  31.207  -0.873  0.00  0.00  0.2058 H
ATOM   2129  H LYS A 1      22.244  15.813  10.990  0.00  0.00  0.2058 H
ATOM   2130  H LYS A 1      22.244  16.746   9.670  0.00  0.00  0.2058 H
ATOM   2131  H LYS A 1      40.729   9.223   1.282  0.00  0.00  0.2058 H
ATOM   2132  H LYS A 1      40.729  10.156  -0.038  0.00  0.00  0.2058 H
ATOM   2133  H LYS A 1      12.500  15.267   5.087  0.00  0.00  0.2058 H
ATOM   2134  H LYS A 1      12.500  16.200   3.767  0.00  0.00  0.2058 H
ATOM   2135  H LYS A 1      20.372  28.618  -1.363  0.00  0.00  0.2058 H
ATOM   2136  H LYS A 1      20.372  29.551  -2.683  0.00  0.00  0.2058 H
ATOM   2137  H LYS A 1      22.793  15.462  -5.683  0.00  0.00  0.2058 H
ATOM   2138  H LYS A 1      22.793  16.395  -7.003  0.00  0.00  0.2058 H
ATOM   2139  H LYS A 1      23.138  31.809  16.111  0.00  0.00  0.2058 H
ATOM   2140  H LYS A 1      23.138  32.742  14.791  0.00  0.00  0.2058 H
ATOM   2141  H LYS A 1      22.671  38.691   9.235  0.00  0.00  0.2058 H
ATOM   2142  H LYS A 1      22.671  39.624   7.915  0.00  0.00  0.2058 H
ATOM   2143  H LYS A 1      33.966  33.112   7.827  0.00  0.00  0.2058 H
ATOM   2144  H LYS A 1      33.966  34.045   6.507  0.00  0.00  0.2058 H
ATOM   2145  H LYS A 1      19.572  25.423  -0.430  0.00  0.00  0.2058 H
ATOM   2146  H LYS A 1      19.572  26.356  -1.750  0.00  0.00  0.2058 H
ATOM   2147  H LYS A 1      14.790  15.672   8.249  0.00  0.00  0.2058 H
ATOM   2148  H LYS A 1      14.790  16.605   6.929  0.00  0.00  0.2058 H
ATOM   2149  H LYS A 1      19.112  28.022 -13.657  0.00  0.00  0.2058 H
ATOM   2150  H LYS A 1      19.112  28.955 -14.977  0.00  0.00  0.2058 H
ATOM   2151  H LYS A 1      17.302  39.059 -11.463  0.00  0.00  0.2058 H
ATOM   2152  H LYS A 1      17.302  39.992 -12.783  0.00  0.00  0.2058 H
ATOM   2153  H LYS A 1      16.198  14.502   6.567  0.00  0.00  0.2058 H
ATOM   2154  H LYS A 1      16.198  15.435   5.247  0.00  0.00  0.2058 H
ATOM   2155  H LYS A 1      17.345  46.346  -6.090  0.00  0.00  0.2058 H
ATOM   2156  H LYS A 1      17.345  47.279  -7.410  0.00  0.00  0.2058 H
ATOM   2157  H LYS A 1      14.992  31.300  -3.252  0.00  0.00  0.2058 H
ATOM   2158  H LYS A 1      14.992  32.233  -4.572  0.00  0.00  0.2058 H
ATOM   2159  H LYS A 1      28.196  44.775  -2.158  0.00  0.00  0.2058 H
ATOM   2160  H LYS A 1      28.196  45.708  -3.478  0.00  0.00  0.2058 H
ATOM   2161  H LYS A 1      29.479  13.863  -8.117  0.00  0.00  0.2058 H
ATOM   2162  H LYS A 1      29.479  14.796  -9.437  0.00  0.00  0.2058 H
ATOM   2163  H LYS A 1      23.613  44.811   3.598  0.00  0.00  0.2058 H
ATOM   2164  H LYS A 1      23.613  45.744   2.278  0.00  0.00  0.2058 H
ATOM   2165  H LYS A 1      40.572  22.184  -5.368  0.00  0.00  0.2058 H
ATOM   2166  H LYS A 1      40.572  23.117  -6.688  0.00  0.00  0.2058 H
ATOM   2167  H LYS A 1      12.475  31.860  -5.236  0.00  0.00  0.2058 H
ATOM   2168  H LYS A 1      12.475  32.793  -6.556  0.00  0.00  0.2058 H
ATOM   2169  H LYS A 1      16.684  13.594  -4.842  0.00  0.00  0.2058 H
ATOM   2170  H LYS A 1      16.684  14.527  -6.162  0.00  0.00  0.2058 H
ATOM   2171  H LYS A 1      27.534  38.059 -11.872  0.00  0.00  0.2058 H
ATOM   2172  H LYS A 1      27.534  38.992 -13.192  0.00  0.00  0.2058 H
ATOM   2173  H LYS A 1      25.892  35.973  12.553  0.00  0.00  0.2058 H
ATOM   2174  H LYS A 1      25.892  36.906  11.233  0.00  0.00  0.2058 H
ATOM   2175  H LYS A 1      24.790  25.182  17.053  0.00  0.00  0.2058 H
ATOM   2176  H LYS A 1      24.790  26.115  15.733  0.00  0.00  0.2058 H
ATOM   2177  H LYS A 1      12.580  21.214   5.996  0.00  0.00  0.2058 H
ATOM   2178  H LYS A 1      12.580  22.147   4.676  0.00  0.00  0.2058 H
ATOM   2179  H LYS A 1      19.687  23.750  -3.861  0.00  0.00  0.2058 H
ATOM   2180  H LYS A 1      19.687  24.683  -5.181  0.00  0.00  0.2058 H
ATOM   2181  H LYS A 1      27.098  35.956 -11.368  0.00  0.00  0.2058 H
ATOM   2182  H LYS A 1      27.098  36.889 -12.688  0.00  0.00  0.2058 H
ATOM   2183  H LYS A 1      37.255   9.634  10.992  0.00  0.00  0.2058 H
ATOM   2184  H LYS A 1      37.255  10.567   9.672  0.00  0.00  0.2058 H
ATOM   2185  H LYS A 1      43.755  23.843   9.028  0.00  0.00  0.2058 H
ATOM   2186  H LYS A 1      43.755  24.776   7.708  0.00  0.00  0.2058 H
ENDROOT
TORSDOF
0
