REMARK  Name = Acetone
ATOM      1  C   ACE A   1       0.000  -1.300  -0.800  0.00  0.00    -0.200 C
ATOM      2  C   ACE A   1       0.000   0.000  -1.300  0.00  0.00     0.400 C
ATOM      3  O   ACE A   1       0.000   0.000   0.000  0.00  0.00    -0.400 OA
ATOM      4  C   ACE A   1       0.000   1.300  -0.800  0.00  0.00    -0.200 C
ATOM      5  H   ACE A   1       0.000  -1.300   0.300  0.00  0.00     0.100 HD
ATOM      6  H   ACE A   1       0.000  -2.200  -1.300  0.00  0.00     0.100 HD
ATOM      7  H   ACE A   1       0.000   1.300   0.300  0.00  0.00     0.100 HD
ATOM      8  H   ACE A   1       0.000   2.200  -1.300  0.00  0.00     0.100 HD
ENDROOT
TORSDOF 0
